
Running Job 1 of 1 mol.qin
qchem mol.qin_144294.0 /tmp/scratch/ 0
/clusterfs/mp/software/qchem/exe/qcprog.exe_s mol.qin_144294.0 /tmp/scratch/
                  Welcome to Q-Chem
     A Quantum Leap Into The Future Of Chemistry


 Q-Chem 5.2, Q-Chem, Inc., Pleasanton, CA (2019)

 Yihan Shao,  Zhengting Gan,  E. Epifanovsky,  A. T. B. Gilbert,  M. Wormit,  
 J. Kussmann,  A. W. Lange,  A. Behn,  Jia Deng,  Xintian Feng,  D. Ghosh,  
 M. Goldey,  P. R. Horn,  L. D. Jacobson,  I. Kaliman,  T. Kus,  A. Landau,  
 Jie Liu,  E. I. Proynov,  R. M. Richard,  R. P. Steele,  E. J. Sundstrom,  
 H. L. Woodcock III,  P. M. Zimmerman,  D. Zuev,  B. Alam,  B. Albrecht,  
 E. Alguire,  S. A. Baeppler,  D. Barton,  Z. Benda,  Y. A. Bernard,  
 E. J. Berquist,  K. B. Bravaya,  H. Burton,  K. Carter-Fenk,  D. Casanova,  
 Chun-Min Chang,  Yunqing Chen,  A. Chien,  K. D. Closser,  M. P. Coons,  
 S. Coriani,  S. Dasgupta,  A. L. Dempwolff,  M. Diedenhofen,  Hainam Do,  
 R. G. Edgar,  Po-Tung Fang,  S. Faraji,  S. Fatehi,  Qingguo Feng,  
 J. Fosso-Tande,  J. Gayvert,  Qinghui Ge,  A. Ghysels,  G. Gidofalvi,  
 J. Gomes,  J. Gonthier,  A. Gunina,  D. Hait,  M. W. D. Hanson-Heine,  
 P. H. P. Harbach,  A. W. Hauser,  M. F. Herbst,  J. E. Herr,  
 E. G. Hohenstein,  Z. C. Holden,  Kerwin Hui,  B. C. Huynh,  T.-C. Jagau,  
 Hyunjun Ji,  B. Kaduk,  K. Khistyaev,  Jaehoon Kim,  P. Klunzinger,  K. Koh,  
 D. Kosenkov,  L. Koulias,  T. Kowalczyk,  C. M. Krauter,  A. Kunitsa,  
 Ka Un Lao,  A. Laurent,  K. V. Lawler,  Joonho Lee,  D. Lefrancois,  
 S. Lehtola,  D. S. Levine,  Yi-Pei Li,  You-Sheng Lin,  Fenglai Liu,  
 Kuan-Yu Liu,  E. Livshits,  M. Loipersberger,  A. Luenser,  P. Manohar,  
 E. Mansoor,  S. F. Manzer,  Shan-Ping Mao,  Yuezhi Mao,  N. Mardirossian,  
 A. V. Marenich,  T. Markovich,  L. A. Martinez-Martinez,  S. A. Maurer,  
 N. J. Mayhall,  S. C. McKenzie,  J.-M. Mewes,  P. Morgante,  A. F. Morrison,  
 J. W. Mullinax,  K. Nanda,  T. S. Nguyen-Beck,  R. Olivares-Amaya,  
 J. A. Parkhill,  S. K. Paul,  Zheng Pei,  T. M. Perrine,  F. Plasser,  
 P. Pokhilko,  S. Prager,  A. Prociuk,  E. Ramos,  B. Rana,  D. R. Rehn,  
 F. Rob,  M. Scheurer,  M. Schneider,  N. Sergueev,  S. M. Sharada,  
 S. Sharma,  D. W. Small,  T. Stauch,  C. J. Stein,  T. Stein,  Yu-Chuan Su,  
 S. P. Veccham,  A. J. W. Thom,  A. Tkatchenko,  T. Tsuchimochi,  
 N. M. Tubman,  L. Vogt,  M. L. Vidal,  O. Vydrov,  M. A. Watson,  J. Wenzel,  
 M. de Wergifosse,  T. A. Wesolowski,  A. White,  J. Witte,  A. Yamada,  
 Jun Yang,  K. Yao,  S. Yeganeh,  S. R. Yost,  Zhi-Qiang You,  A. Zech,  
 Igor Ying Zhang,  Xing Zhang,  Yan Zhao,  Ying Zhu,  B. R. Brooks,  
 G. K. L. Chan,  C. J. Cramer,  M. S. Gordon,  W. J. Hehre,  A. Klamt,  
 M. W. Schmidt,  C. D. Sherrill,  D. G. Truhlar,  A. Aspuru-Guzik,  R. Baer,  
 A. T. Bell,  N. A. Besley,  Jeng-Da Chai,  A. E. DePrince, III,  
 R. A. DiStasio Jr.,  A. Dreuw,  B. D. Dunietz,  T. R. Furlani,  
 Chao-Ping Hsu,  Yousung Jung,  Jing Kong,  D. S. Lambrecht,  WanZhen Liang,  
 C. Ochsenfeld,  V. A. Rassolov,  L. V. Slipchenko,  J. E. Subotnik,  
 T. Van Voorhis,  J. M. Herbert,  A. I. Krylov,  P. M. W. Gill,  M. Head-Gordon

 Contributors to earlier versions of Q-Chem not listed above: 
 R. D. Adamson,  B. Austin,  J. Baker,  G. J. O. Beran,  K. Brandhorst,  
 S. T. Brown,  E. F. C. Byrd,  A. K. Chakraborty,  C.-L. Cheng,  
 Siu Hung Chien,  D. M. Chipman,  D. L. Crittenden,  H. Dachsel,  
 R. J. Doerksen,  A. D. Dutoi,  L. Fusti-Molnar,  W. A. Goddard III,  
 A. Golubeva-Zadorozhnaya,  S. R. Gwaltney,  G. Hawkins,  A. Heyden,  
 S. Hirata,  G. Kedziora,  F. J. Keil,  C. Kelley,  Jihan Kim,  R. A. King,  
 R. Z. Khaliullin,  P. P. Korambath,  W. Kurlancheek,  A. M. Lee,  M. S. Lee,  
 S. V. Levchenko,  Ching Yeh Lin,  D. Liotard,  R. C. Lochan,  I. Lotan,  
 P. E. Maslen,  N. Nair,  D. P. O'Neill,  D. Neuhauser,  E. Neuscamman,  
 C. M. Oana,  R. Olson,  B. Peters,  R. Peverati,  P. A. Pieniazek,  
 Y. M. Rhee,  J. Ritchie,  M. A. Rohrdanz,  E. Rosta,  N. J. Russ,  
 H. F. Schaefer III,  N. E. Schultz,  N. Shenvi,  A. C. Simmonett,  A. Sodt,  
 D. Stuck,  K. S. Thanthiriwatte,  V. Vanovschi,  Tao Wang,  A. Warshel,  
 C. F. Williams,  Q. Wu,  X. Xu,  W. Zhang

 Please cite Q-Chem as follows:
 Y. Shao et al., Mol. Phys. 113, 184-215 (2015)
 DOI: 10.1080/00268976.2014.952696

 Q-Chem 5.2.2 for Intel X86 EM64T Linux

 Parts of Q-Chem use Armadillo 8.300.2 (Tropical Shenanigans).
 http://arma.sourceforge.net/

 Q-Chem begins on Fri May 22 10:03:07 2020  

Host: 
0

     Scratch files written to /tmp/scratch//
 Nov2519 |scratch|qcdevops|jenkins|workspace|build_RNUM 6829   
Processing $rem in /clusterfs/mp/software/qchem/config/preferences:
	 MEM_TOTAL  96000 
NAlpha2: 82
NElect   82
Mult     1
Symmetry turned off for PCM/SM12/SMD calculation

Checking the input file for inconsistencies... 	...done.

--------------------------------------------------------------
User input:
--------------------------------------------------------------
$molecule
0 1
O      3.6607013038      1.1428493478      3.0334543084
C      4.4903898220      1.3699581161      2.1743474040
C      3.9909418599     -1.6942749399      1.4020363567
O      5.4551908189      2.1803392020      2.1166485820
O      4.4455750364      0.6322805506      0.9476778906
C      3.4666690538     -0.3977869402      0.8059640261
Li      5.9851561117      1.6556824494      0.4252772809
H      4.1653135769     -1.5739595594      2.4723944405
H      4.9178642283     -1.9991532734      0.9133455113
H      2.5431574349     -0.0928205124      1.3004896876
H      3.2887035648     -0.5108955297     -0.2646143449
O      3.0028567481     -2.7245525605      1.2852413086
C      2.9365659812     -3.3956137796      0.1154141022
O      2.0435379315     -4.2776115993      0.0342681368
O      3.7415850613     -3.1352998459     -0.8198812742
Li      2.7727714664     -4.5213211254     -1.7012534167
$end

$rem
job_type = freq
basis = def2-tzvppd
max_scf_cycles = 200
gen_scfman = true
xc_grid = 3
scf_algorithm = diis
resp_charges = true
symmetry = false
sym_ignore = true
method = wb97xv
geom_opt_max_cycles = 200
solvent_method = smd
ideriv = 1
thresh = 14
$end

$smx
solvent other
$end
--------------------------------------------------------------
 ----------------------------------------------------------------
             Standard Nuclear Orientation (Angstroms)
    I     Atom           X                Y                Z
 ----------------------------------------------------------------
    1      O       3.6607013038     1.1428493478     3.0334543084
    2      C       4.4903898220     1.3699581161     2.1743474040
    3      C       3.9909418599    -1.6942749399     1.4020363567
    4      O       5.4551908189     2.1803392020     2.1166485820
    5      O       4.4455750364     0.6322805506     0.9476778906
    6      C       3.4666690538    -0.3977869402     0.8059640261
    7      Li      5.9851561117     1.6556824494     0.4252772809
    8      H       4.1653135769    -1.5739595594     2.4723944405
    9      H       4.9178642283    -1.9991532734     0.9133455113
   10      H       2.5431574349    -0.0928205124     1.3004896876
   11      H       3.2887035648    -0.5108955297    -0.2646143449
   12      O       3.0028567481    -2.7245525605     1.2852413086
   13      C       2.9365659812    -3.3956137796     0.1154141022
   14      O       2.0435379315    -4.2776115993     0.0342681368
   15      O       3.7415850613    -3.1352998459    -0.8198812742
   16      Li      2.7727714664    -4.5213211254    -1.7012534167
 ----------------------------------------------------------------
 Nuclear Repulsion Energy =         588.78650446 hartrees
 There are       41 alpha and       41 beta electrons
 Requested basis set is def2-TZVPPD
 There are 184 shells and 500 basis functions

 Total QAlloc Memory Limit  96000 MB
 Mega-Array Size       188 MB
 MEM_STATIC part       192 MB
 
 Citation of the SMD model:
 Marenich, A.V.; Cramer, C.J.; Truhlar, D.G.
 J. Phys. Chem. B 2009, 113, 6378-6396.
 iSolventCode=           0
 Solvent: other                                                           
 
 vradii
            1           2           3           4           5           6
    1   2.2940000   1.8500000   1.8500000   2.2940000   2.2940000   1.8500000
            7           8           9          10          11          12
    1   2.1476001   1.2000000   1.2000000   1.2000000   1.2000000   2.2940000
           13          14          15          16
    1   1.8500000   2.2940000   2.2940000   2.1476001
 Changing PCM_VDW_RADII to SMD_RADIUS
 Discretize the solute cavity surface with Lebedev spheres
	Using 110 Lebedev grid points for each H atom
	Using 194 Lebedev grid points for other atoms
	Atomic van der Waals radii will be scaled by 1.20
 Remove points where switching function is < 1.0e-08
 Keep 1092 surface tesserae and discard 1676 interior tesserae
 Molecular Surface Area = 242.665 Angst**2
 A cutoff of  1.0D-14 yielded  15090 shell pairs
 There are    112070 function pairs (    142752 Cartesian)
 Smallest overlap matrix eigenvalue = 4.81E-06
 Guess from superposition of atomic densities
 Warning:  Energy on first SCF cycle will be non-variational
 SAD guess density has 82.000000 electrons

 -----------------------------------------------------------------------
  General SCF calculation program by
  Eric Jon Sundstrom, Paul Horn, Yuezhi Mao, Dmitri Zuev, Alec White,
  David Stuck, Shaama M.S., Shane Yost, Joonho Lee, David Small,
  Daniel Levine, Susi Lehtola, Hugh Burton, Evgeny Epifanovsky,
  Bang C. Huynh
 -----------------------------------------------------------------------
 Exchange:     0.1670 Hartree-Fock + 1.0000 wB97X-V + LR-HF
 Correlation:  1.0000 wB97X-V
 Using SG-3 standard quadrature grid
 Nonlocal Correlation:  VV10 with C = 0.0100 and b = 6.00 and scale = 1.00000
 Grid used for NLC:  SG-1 standard quadrature
 
 Citation of the SMD model:
 Marenich, A.V.; Cramer, C.J.; Truhlar, D.G.
 J. Phys. Chem. B 2009, 113, 6378-6396.
 iSolventCode=           0
 Solvent: other                                                           
 
 vradii
            1           2           3           4           5           6
    1   2.2940000   1.8500000   1.8500000   2.2940000   2.2940000   1.8500000
            7           8           9          10          11          12
    1   2.1476001   1.2000000   1.2000000   1.2000000   1.2000000   2.2940000
           13          14          15          16
    1   1.8500000   2.2940000   2.2940000   2.1476001
 using 32 threads for integral computing
 -------------------------------------------------------
 OpenMP Integral computing Module                
 Release: version 1.0, May 2013, Q-Chem Inc. Pittsburgh 
 -------------------------------------------------------
 using 32 threads for integral computing
 -------------------------------------------------------
 OpenMP Integral computing Module                
 Release: version 1.0, May 2013, Q-Chem Inc. Pittsburgh 
 -------------------------------------------------------
 -------------------------------------------------------
 OpenMP BLAS3 based DFT computing Module                
 Release: version 1.0, May 2013, Q-Chem Inc. Pittsburgh 
 -------------------------------------------------------
 -------------------------------------------------------
 OpenMP BLAS3 based DFT computing Module                
 Release: version 1.0, May 2013, Q-Chem Inc. Pittsburgh 
 -------------------------------------------------------
 -------------------------------------------------------
 OpenMP BLAS3 based DFT computing Module                
 Release: version 1.0, May 2013, Q-Chem Inc. Pittsburgh 
 -------------------------------------------------------
 A restricted SCF calculation will be
 performed using DIIS
 SCF converges when DIIS error is below 1.0e-08
 ---------------------------------------
  Cycle       Energy         DIIS error
 ---------------------------------------
    1    -623.2550668013      2.09e-02  
    2    -621.1445183569      3.93e-03  
    3    -621.1341657678      4.34e-03  
    4    -621.5002454370      2.62e-04  
    5    -621.5012327806      1.83e-04  
    6    -621.5019259633      3.32e-05  
    7    -621.5019600922      7.23e-06  
    8    -621.5019625674      2.83e-06  
    9    -621.5019629110      1.46e-06  
   10    -621.5019629745      4.67e-07  
   11    -621.5019629833      1.00e-07  
   12    -621.5019629838      5.44e-08  
   13    -621.5019629839      1.55e-08  
   14    -621.5019629839      6.01e-09  Convergence criterion met
 ---------------------------------------
 SCF time:   CPU 4419.84s  wall 172.00s 
(3)  G-ENP(liq) elect-nuc-pol free energy of system     -621.501962984 a.u.
(4)  G-CDS(liq) cavity-dispersion-solvent structure 
     free energy                                               -3.4996 kcal/mol
(6)  G-S(liq) free energy of system                     -621.507539984 a.u.
 SCF   energy in the final basis set =     -621.5019629839
 Total energy in the final basis set =     -621.5075399838
 
 --------------------------------------------------------------
 
                    Orbital Energies (a.u.)
 --------------------------------------------------------------
 
 Alpha MOs
 -- Occupied --
-19.2477 -19.2459 -19.1797 -19.1751 -19.1749 -19.1712 -10.4168 -10.4099
-10.3165 -10.3152  -2.1055  -2.0988  -1.2435  -1.2324  -1.1461  -1.1339
 -1.1058  -1.0956  -0.8873  -0.7861  -0.6764  -0.6737  -0.6189  -0.6003
 -0.5964  -0.5920  -0.5756  -0.5626  -0.5411  -0.5161  -0.5060  -0.4836
 -0.4458  -0.4290  -0.4233  -0.4049  -0.3905  -0.3841  -0.3816  -0.3755
 -0.3716
 -- Virtual --
  0.0266   0.0296   0.0416   0.0454   0.0509   0.0512   0.0531   0.0651
  0.0842   0.1014   0.1077   0.1167   0.1215   0.1257   0.1284   0.1336
  0.1354   0.1360   0.1412   0.1435   0.1458   0.1494   0.1582   0.1632
  0.1637   0.1683   0.1736   0.1803   0.1845   0.1866   0.1919   0.2022
  0.2102   0.2168   0.2229   0.2325   0.2367   0.2416   0.2460   0.2574
  0.2626   0.2833   0.2872   0.2882   0.2962   0.3002   0.3054   0.3095
  0.3209   0.3254   0.3360   0.3384   0.3424   0.3477   0.3545   0.3583
  0.3618   0.3646   0.3759   0.3795   0.3853   0.3908   0.3930   0.4013
  0.4039   0.4073   0.4125   0.4181   0.4274   0.4321   0.4368   0.4399
  0.4442   0.4460   0.4483   0.4598   0.4662   0.4754   0.4786   0.4835
  0.4901   0.4948   0.4957   0.5007   0.5103   0.5155   0.5193   0.5289
  0.5313   0.5355   0.5455   0.5509   0.5559   0.5658   0.5731   0.5759
  0.5774   0.5815   0.5899   0.5939   0.6000   0.6150   0.6220   0.6301
  0.6377   0.6399   0.6469   0.6592   0.6654   0.6709   0.6742   0.6802
  0.6878   0.6906   0.6966   0.7007   0.7044   0.7174   0.7185   0.7290
  0.7377   0.7430   0.7510   0.7542   0.7634   0.7748   0.7780   0.7870
  0.7941   0.7969   0.8094   0.8123   0.8185   0.8271   0.8315   0.8357
  0.8401   0.8480   0.8592   0.8635   0.8746   0.8780   0.8887   0.9048
  0.9108   0.9128   0.9280   0.9346   0.9457   0.9557   0.9675   0.9728
  0.9925   1.0063   1.0116   1.0180   1.0350   1.0375   1.0422   1.0478
  1.0536   1.0724   1.0738   1.0805   1.0968   1.1169   1.1222   1.1533
  1.1621   1.1681   1.1990   1.2102   1.2211   1.2374   1.2451   1.2536
  1.2668   1.2810   1.2908   1.2946   1.3030   1.3215   1.3296   1.3415
  1.3486   1.3629   1.3962   1.4006   1.4042   1.4154   1.4196   1.4240
  1.4439   1.4490   1.4583   1.4697   1.4896   1.5074   1.5273   1.5711
  1.5849   1.6067   1.6233   1.6356   1.6730   1.7271   1.7394   1.7501
  1.7583   1.7851   1.8247   1.8321   1.8386   1.8732   1.8832   1.8977
  1.9059   1.9278   1.9420   1.9512   1.9549   1.9728   1.9888   2.0171
  2.0280   2.0406   2.0613   2.0651   2.0804   2.1186   2.1537   2.1630
  2.1882   2.2237   2.2275   2.2455   2.2651   2.2713   2.3111   2.3232
  2.3381   2.3429   2.3726   2.3913   2.4101   2.4480   2.4721   2.4780
  2.5029   2.5140   2.5359   2.5443   2.5928   2.5996   2.6430   2.6646
  2.6889   2.7398   2.7678   2.7778   2.7962   2.8763   2.9566   2.9647
  2.9730   2.9971   3.0173   3.0280   3.0460   3.0724   3.0770   3.0875
  3.0965   3.1022   3.1396   3.1706   3.1778   3.1855   3.2292   3.2647
  3.2800   3.2965   3.3155   3.3247   3.3441   3.3488   3.3610   3.3659
  3.3753   3.3907   3.3920   3.4256   3.4408   3.4459   3.4538   3.4636
  3.4935   3.5141   3.5398   3.5474   3.5548   3.5682   3.5695   3.6031
  3.6079   3.6255   3.6349   3.6405   3.6458   3.6601   3.6708   3.6743
  3.6994   3.7228   3.7265   3.7552   3.8216   3.8294   3.8534   3.8538
  3.8661   3.9181   3.9566   3.9670   4.0106   4.0539   4.0843   4.1063
  4.1463   4.1737   4.2014   4.2218   4.2415   4.2599   4.2869   4.3315
  4.3615   4.3933   4.4533   4.4916   4.5461   4.5668   4.6147   4.6490
  4.6641   4.7352   4.7887   4.8040   4.8251   4.8492   4.8838   4.8991
  4.9057   4.9519   5.0422   5.0501   5.1404   5.1478   5.1805   5.2313
  5.2559   5.2600   5.2782   5.2809   5.3140   5.3239   5.3317   5.3370
  5.3802   5.3991   5.4212   5.4560   5.5017   5.5063   5.5424   5.5657
  5.5777   5.6027   5.6191   5.6274   5.6475   5.6730   5.6902   5.7050
  5.7165   5.7299   5.7636   5.8478   5.8685   5.8773   5.9058   5.9356
  5.9483   6.0243   6.0691   6.0845   6.1069   6.1629   6.1761   6.2354
  6.2440   6.2566   6.2872   6.2890   6.3113   6.3339   6.3399   6.3563
  6.3874   6.4160   6.4597   6.5637   6.6173   6.6259   6.6575   6.6872
  6.6921   6.7146   6.7157   6.7271   6.7385   6.7751   6.8062   6.8529
  6.8706   6.9069   6.9376   6.9419   6.9553   7.0012   7.0577   7.1156
  7.1221   7.1628   7.1963   7.2682   7.2763   7.3474   7.4087   7.4452
  7.4808   7.5001   7.5304   7.6561   7.6651   7.7203   7.7307  14.8162
 15.1089  23.6651  23.6982  23.8606  23.9110  44.2437  44.2767  44.4043
 44.4409  44.5710  44.6816
 --------------------------------------------------------------
 
          Ground-State Mulliken Net Atomic Charges

     Atom                 Charge (a.u.)
  ----------------------------------------
      1 O                    -0.539944
      2 C                     0.645299
      3 C                     0.104245
      4 O                    -0.768402
      5 O                    -0.413858
      6 C                     0.040793
      7 Li                    0.887488
      8 H                     0.037947
      9 H                     0.082564
     10 H                     0.096323
     11 H                     0.041097
     12 O                    -0.244594
     13 C                     0.749883
     14 O                    -0.792096
     15 O                    -0.801177
     16 Li                    0.874433
  ----------------------------------------
  Sum of atomic charges =     0.000000

  Building new vdw surfaces
         Merz-Kollman RESP Net Atomic Charges

     Atom                 Charge (a.u.)
  ----------------------------------------
      1 O                    -0.624377
      2 C                     0.815945
      3 C                     0.059837
      4 O                    -0.792182
      5 O                    -0.523246
      6 C                    -0.013809
      7 Li                    0.868335
      8 H                     0.110277
      9 H                     0.110277
     10 H                     0.128445
     11 H                     0.128445
     12 O                    -0.406887
     13 C                     0.802752
     14 O                    -0.757963
     15 O                    -0.757963
     16 Li                    0.852113
  ----------------------------------------
  Sum of atomic charges =     0.000000

  Related Dipole Moment =    13.8195 (X  4.7203 Y -3.0491 Z -12.6254)

 -----------------------------------------------------------------
                    Cartesian Multipole Moments
 -----------------------------------------------------------------
    Charge (ESU x 10^10)
                 0.0000
    Dipole Moment (Debye)
         X       4.7952      Y      -3.0627      Z     -12.7650
       Tot      13.9756
    Quadrupole Moments (Debye-Ang)
        XX     -17.4720     XY     -10.2001     YY     -48.6044
        XZ     -43.5750     YZ       9.8965     ZZ     -76.4609
    Octopole Moments (Debye-Ang^2)
       XXX    -354.3358    XXY      63.9910    XYY    -171.3777
       YYY      70.6132    XXZ    -230.0968    XYZ     -15.6805
       YYZ    -220.2371    XZZ    -307.4453    YZZ     -27.5638
       ZZZ    -289.5422
    Hexadecapole Moments (Debye-Ang^3)
      XXXX   -3169.2329   XXXY     665.8154   XXYY   -1111.9542
      XYYY     -85.9391   YYYY   -1669.3518   XXXZ   -1522.5055
      XXYZ    -301.2732   XYYZ    -735.5354   YYYZ     390.5171
      XXZZ   -1477.8815   XYZZ    -199.7261   YYZZ    -387.3525
      XZZZ   -1169.1549   YZZZ    -179.0145   ZZZZ   -1140.7184
 -----------------------------------------------------------------
 Calculating analytic gradient of the SCF energy
 Gradient of CDS energy
            1           2           3           4           5           6
    1  -0.0005304  -0.0001401   0.0005523   0.0005173   0.0001556  -0.0005313
    2  -0.0010221   0.0009830  -0.0007150  -0.0001450  -0.0001683   0.0007386
    3  -0.0003326   0.0009986   0.0009175  -0.0010226   0.0004049  -0.0009036
            7           8           9          10          11          12
    1   0.0000255  -0.0003238  -0.0002605   0.0002525   0.0002983   0.0001842
    2   0.0000515   0.0002076   0.0000855  -0.0000767  -0.0002468   0.0009103
    3   0.0000359  -0.0000754  -0.0004146   0.0004145   0.0000700   0.0004068
           13          14          15          16
    1  -0.0000929  -0.0000244  -0.0000771  -0.0000054
    2  -0.0005481  -0.0002477   0.0002099  -0.0000168
    3   0.0000420  -0.0004037  -0.0001109  -0.0000269
 Gradient of SCF Energy
            1           2           3           4           5           6
    1   0.0034712   0.0001822  -0.0017606  -0.0066497  -0.0021562  -0.0013322
    2   0.0032346  -0.0011423   0.0010998  -0.0014835   0.0013431   0.0010195
    3  -0.0010859  -0.0012109   0.0025020   0.0065553   0.0055441   0.0044018
            7           8           9          10          11          12
    1   0.0041623  -0.0000069   0.0034285   0.0020576  -0.0001329  -0.0018630
    2  -0.0012127  -0.0005283  -0.0000683  -0.0007762   0.0000269  -0.0016423
    3  -0.0081793  -0.0021056  -0.0014978  -0.0020827  -0.0038528   0.0015736
           13          14          15          16
    1   0.0007313  -0.0003991  -0.0006756   0.0009433
    2  -0.0006957   0.0025505   0.0009926  -0.0027177
    3  -0.0046492   0.0063923   0.0053930  -0.0076980
 Max gradient component =       8.179E-03
 RMS gradient           =       3.199E-03
 Computing fast CPCM-SWIG gradient
 Updating gradient with PCM contributions...
 -- total gradient after adding PCM contribution --
---------------------------------------------------
  Atom         X              Y              Z     
---------------------------------------------------
   1       0.000004       0.000015       0.000020
   2      -0.000043      -0.000020      -0.000036
   3      -0.000111      -0.000117      -0.000024
   4       0.000035       0.000055       0.000009
   5       0.000055      -0.000026      -0.000049
   6       0.000065       0.000077       0.000014
   7      -0.000102      -0.000053       0.000049
   8       0.000011       0.000013       0.000003
   9       0.000023      -0.000007       0.000006
  10      -0.000017      -0.000017       0.000002
  11      -0.000013      -0.000006       0.000000
  12       0.000092       0.000113      -0.000057
  13      -0.000094      -0.000072       0.000086
  14       0.000012       0.000023       0.000059
  15       0.000015      -0.000010      -0.000056
  16       0.000067       0.000032      -0.000026
---------------------------------------------------
 Number of fixed atoms: 0
 Gradient time:  CPU 1100.91 s  wall 46.60 s
 ######################################################
 ######################################################
 # Starting finite difference calculation for IDERIV  #
 Finite diff step size:  1.88973e-03 a.u.
 ----------------------------------------------------------------
             Standard Nuclear Orientation (Angstroms)
    I     Atom           X                Y                Z
 ----------------------------------------------------------------
    1      O       3.6617013038     1.1428493478     3.0334543084
    2      C       4.4903898220     1.3699581161     2.1743474040
    3      C       3.9909418599    -1.6942749399     1.4020363567
    4      O       5.4551908189     2.1803392020     2.1166485820
    5      O       4.4455750364     0.6322805506     0.9476778906
    6      C       3.4666690538    -0.3977869402     0.8059640261
    7      Li      5.9851561117     1.6556824494     0.4252772809
    8      H       4.1653135769    -1.5739595594     2.4723944405
    9      H       4.9178642283    -1.9991532734     0.9133455113
   10      H       2.5431574349    -0.0928205124     1.3004896876
   11      H       3.2887035648    -0.5108955297    -0.2646143449
   12      O       3.0028567481    -2.7245525605     1.2852413086
   13      C       2.9365659812    -3.3956137796     0.1154141022
   14      O       2.0435379315    -4.2776115993     0.0342681368
   15      O       3.7415850613    -3.1352998459    -0.8198812742
   16      Li      2.7727714664    -4.5213211254    -1.7012534167
 ----------------------------------------------------------------
 Nuclear Repulsion Energy =         588.80552870 hartrees
 There are       41 alpha and       41 beta electrons
 Discretize the solute cavity surface with Lebedev spheres
	Using 110 Lebedev grid points for each H atom
	Using 194 Lebedev grid points for other atoms
	Atomic van der Waals radii will be scaled by 1.20
 Remove points where switching function is < 1.0e-08
 Keep 1092 surface tesserae and discard 1676 interior tesserae
 Molecular Surface Area = 242.656 Angst**2
 Requested basis set is def2-TZVPPD
 There are 184 shells and 500 basis functions
 A cutoff of  1.0D-14 yielded  15090 shell pairs
 There are    112070 function pairs (    142752 Cartesian)
 Smallest overlap matrix eigenvalue = 4.81E-06
 Guess MOs from SCF MO coefficient file

 -----------------------------------------------------------------------
  General SCF calculation program by
  Eric Jon Sundstrom, Paul Horn, Yuezhi Mao, Dmitri Zuev, Alec White,
  David Stuck, Shaama M.S., Shane Yost, Joonho Lee, David Small,
  Daniel Levine, Susi Lehtola, Hugh Burton, Evgeny Epifanovsky,
  Bang C. Huynh
 -----------------------------------------------------------------------
 Exchange:     0.1670 Hartree-Fock + 1.0000 wB97X-V + LR-HF
 Correlation:  1.0000 wB97X-V
 Using SG-3 standard quadrature grid
 Nonlocal Correlation:  VV10 with C = 0.0100 and b = 6.00 and scale = 1.00000
 Grid used for NLC:  SG-1 standard quadrature
 
 Citation of the SMD model:
 Marenich, A.V.; Cramer, C.J.; Truhlar, D.G.
 J. Phys. Chem. B 2009, 113, 6378-6396.
 iSolventCode=           0
 Solvent: other                                                           
 
 vradii
            1           2           3           4           5           6
    1   2.2940000   1.8500000   1.8500000   2.2940000   2.2940000   1.8500000
            7           8           9          10          11          12
    1   2.1476001   1.2000000   1.2000000   1.2000000   1.2000000   2.2940000
           13          14          15          16
    1   1.8500000   2.2940000   2.2940000   2.1476001
 using 32 threads for integral computing
 -------------------------------------------------------
 OpenMP Integral computing Module                
 Release: version 1.0, May 2013, Q-Chem Inc. Pittsburgh 
 -------------------------------------------------------
 using 32 threads for integral computing
 -------------------------------------------------------
 OpenMP Integral computing Module                
 Release: version 1.0, May 2013, Q-Chem Inc. Pittsburgh 
 -------------------------------------------------------
 -------------------------------------------------------
 OpenMP BLAS3 based DFT computing Module                
 Release: version 1.0, May 2013, Q-Chem Inc. Pittsburgh 
 -------------------------------------------------------
 -------------------------------------------------------
 OpenMP BLAS3 based DFT computing Module                
 Release: version 1.0, May 2013, Q-Chem Inc. Pittsburgh 
 -------------------------------------------------------
 -------------------------------------------------------
 OpenMP BLAS3 based DFT computing Module                
 Release: version 1.0, May 2013, Q-Chem Inc. Pittsburgh 
 -------------------------------------------------------
 A restricted SCF calculation will be
 performed using Roothaan-Hall, DIIS
 SCF converges when DIIS error is below 1.0e-08
 ---------------------------------------
  Cycle       Energy         DIIS error
 ---------------------------------------
    1    -621.0885318716      2.42e-04  Roothaan Step
 ---------------------------------------
  Cycle       Energy         DIIS error
 ---------------------------------------
    1    -621.4979026660      2.97e-04  
    2    -621.5000069445      2.99e-04  
    3    -621.5018460532      5.92e-05  
    4    -621.5019470171      1.44e-05  
    5    -621.5019589675      7.84e-06  
    6    -621.5019608654      3.24e-06  
    7    -621.5019612295      9.56e-07  
    8    -621.5019612607      3.23e-07  
    9    -621.5019612651      1.17e-07  
   10    -621.5019612656      2.39e-08  
   11    -621.5019612657      1.01e-08  
   12    -621.5019612657      4.80e-09  Convergence criterion met
 ---------------------------------------
 SCF time:   CPU 4315.07s  wall 167.00s 
(3)  G-ENP(liq) elect-nuc-pol free energy of system     -621.501961266 a.u.
(4)  G-CDS(liq) cavity-dispersion-solvent structure 
     free energy                                               -3.5002 kcal/mol
(6)  G-S(liq) free energy of system                     -621.507539266 a.u.
 SCF   energy in the final basis set =     -621.5019612657
 Total energy in the final basis set =     -621.5075392661
 
 --------------------------------------------------------------
 
                    Orbital Energies (a.u.)
 --------------------------------------------------------------
 
 Alpha MOs
 -- Occupied --
-19.2476 -19.2459 -19.1797 -19.1751 -19.1748 -19.1712 -10.4168 -10.4098
-10.3165 -10.3152  -2.1055  -2.0988  -1.2435  -1.2325  -1.1462  -1.1340
 -1.1059  -1.0956  -0.8873  -0.7861  -0.6764  -0.6737  -0.6189  -0.6003
 -0.5964  -0.5920  -0.5756  -0.5626  -0.5411  -0.5161  -0.5060  -0.4836
 -0.4458  -0.4290  -0.4233  -0.4048  -0.3906  -0.3842  -0.3816  -0.3755
 -0.3716
 -- Virtual --
  0.0266   0.0296   0.0416   0.0454   0.0509   0.0512   0.0531   0.0651
  0.0842   0.1014   0.1077   0.1167   0.1215   0.1257   0.1284   0.1336
  0.1355   0.1360   0.1413   0.1435   0.1458   0.1494   0.1582   0.1633
  0.1638   0.1683   0.1736   0.1803   0.1845   0.1866   0.1919   0.2022
  0.2101   0.2168   0.2229   0.2325   0.2367   0.2416   0.2460   0.2574
  0.2626   0.2833   0.2872   0.2882   0.2962   0.3002   0.3054   0.3095
  0.3209   0.3254   0.3360   0.3384   0.3424   0.3477   0.3546   0.3583
  0.3618   0.3646   0.3759   0.3795   0.3853   0.3908   0.3931   0.4013
  0.4039   0.4073   0.4125   0.4181   0.4274   0.4321   0.4368   0.4399
  0.4441   0.4460   0.4484   0.4598   0.4662   0.4754   0.4786   0.4835
  0.4901   0.4948   0.4957   0.5007   0.5103   0.5155   0.5193   0.5290
  0.5315   0.5355   0.5455   0.5509   0.5559   0.5658   0.5731   0.5759
  0.5774   0.5816   0.5899   0.5939   0.6000   0.6150   0.6220   0.6301
  0.6377   0.6399   0.6469   0.6592   0.6654   0.6709   0.6742   0.6802
  0.6879   0.6906   0.6967   0.7007   0.7044   0.7174   0.7185   0.7290
  0.7377   0.7430   0.7510   0.7543   0.7635   0.7748   0.7780   0.7870
  0.7941   0.7969   0.8094   0.8124   0.8185   0.8272   0.8315   0.8357
  0.8401   0.8480   0.8592   0.8635   0.8746   0.8781   0.8888   0.9048
  0.9108   0.9128   0.9280   0.9347   0.9457   0.9557   0.9675   0.9728
  0.9925   1.0063   1.0116   1.0180   1.0350   1.0375   1.0422   1.0478
  1.0536   1.0724   1.0738   1.0805   1.0968   1.1169   1.1222   1.1533
  1.1621   1.1681   1.1990   1.2103   1.2212   1.2374   1.2452   1.2536
  1.2668   1.2811   1.2908   1.2946   1.3030   1.3216   1.3296   1.3415
  1.3486   1.3629   1.3962   1.4006   1.4042   1.4154   1.4196   1.4240
  1.4440   1.4490   1.4584   1.4697   1.4897   1.5074   1.5273   1.5711
  1.5849   1.6067   1.6233   1.6356   1.6732   1.7273   1.7394   1.7501
  1.7583   1.7851   1.8247   1.8322   1.8387   1.8733   1.8833   1.8978
  1.9059   1.9278   1.9420   1.9513   1.9548   1.9728   1.9888   2.0171
  2.0281   2.0406   2.0613   2.0651   2.0803   2.1187   2.1537   2.1631
  2.1883   2.2238   2.2277   2.2453   2.2650   2.2713   2.3111   2.3232
  2.3382   2.3428   2.3726   2.3914   2.4101   2.4481   2.4721   2.4780
  2.5029   2.5141   2.5361   2.5443   2.5929   2.5997   2.6430   2.6647
  2.6891   2.7399   2.7679   2.7778   2.7962   2.8763   2.9567   2.9647
  2.9730   2.9971   3.0173   3.0280   3.0461   3.0724   3.0770   3.0876
  3.0966   3.1022   3.1396   3.1707   3.1778   3.1856   3.2292   3.2647
  3.2800   3.2966   3.3154   3.3248   3.3441   3.3489   3.3611   3.3660
  3.3753   3.3908   3.3920   3.4256   3.4408   3.4460   3.4538   3.4637
  3.4936   3.5142   3.5399   3.5474   3.5550   3.5683   3.5695   3.6031
  3.6080   3.6255   3.6351   3.6405   3.6458   3.6604   3.6709   3.6744
  3.6996   3.7228   3.7266   3.7554   3.8217   3.8294   3.8534   3.8539
  3.8662   3.9180   3.9567   3.9670   4.0106   4.0539   4.0844   4.1063
  4.1463   4.1737   4.2017   4.2220   4.2417   4.2599   4.2871   4.3315
  4.3615   4.3933   4.4533   4.4916   4.5461   4.5668   4.6147   4.6487
  4.6641   4.7351   4.7887   4.8040   4.8250   4.8491   4.8837   4.8991
  4.9057   4.9518   5.0423   5.0501   5.1405   5.1478   5.1805   5.2313
  5.2559   5.2599   5.2782   5.2809   5.3139   5.3238   5.3317   5.3370
  5.3802   5.3991   5.4212   5.4561   5.5018   5.5063   5.5425   5.5658
  5.5778   5.6028   5.6193   5.6277   5.6475   5.6730   5.6904   5.7054
  5.7167   5.7300   5.7636   5.8479   5.8687   5.8773   5.9060   5.9356
  5.9483   6.0244   6.0691   6.0845   6.1070   6.1630   6.1761   6.2355
  6.2442   6.2566   6.2873   6.2891   6.3113   6.3341   6.3406   6.3563
  6.3883   6.4166   6.4597   6.5637   6.6173   6.6260   6.6579   6.6872
  6.6923   6.7148   6.7157   6.7277   6.7386   6.7754   6.8062   6.8529
  6.8707   6.9069   6.9378   6.9420   6.9553   7.0012   7.0579   7.1157
  7.1226   7.1631   7.1964   7.2683   7.2764   7.3483   7.4087   7.4452
  7.4812   7.5001   7.5304   7.6562   7.6659   7.7206   7.7307  14.8162
 15.1089  23.6652  23.6982  23.8627  23.9111  44.2437  44.2770  44.4043
 44.4413  44.5711  44.6816
 --------------------------------------------------------------
 
          Ground-State Mulliken Net Atomic Charges

     Atom                 Charge (a.u.)
  ----------------------------------------
      1 O                    -0.539154
      2 C                     0.644950
      3 C                     0.104248
      4 O                    -0.768701
      5 O                    -0.413955
      6 C                     0.040801
      7 Li                    0.887473
      8 H                     0.037949
      9 H                     0.082550
     10 H                     0.096302
     11 H                     0.041082
     12 O                    -0.244597
     13 C                     0.749892
     14 O                    -0.792096
     15 O                    -0.801178
     16 Li                    0.874432
  ----------------------------------------
  Sum of atomic charges =     0.000000

  Building new vdw surfaces
         Merz-Kollman RESP Net Atomic Charges

     Atom                 Charge (a.u.)
  ----------------------------------------
      1 O                    -0.624229
      2 C                     0.816556
      3 C                     0.059843
      4 O                    -0.792632
      5 O                    -0.523582
      6 C                    -0.013553
      7 Li                    0.868304
      8 H                     0.110282
      9 H                     0.110282
     10 H                     0.128361
     11 H                     0.128361
     12 O                    -0.406988
     13 C                     0.802801
     14 O                    -0.757949
     15 O                    -0.757949
     16 Li                    0.852093
  ----------------------------------------
  Sum of atomic charges =     0.000000

  Related Dipole Moment =    13.8155 (X  4.7148 Y -3.0502 Z -12.6228)

 -----------------------------------------------------------------
                    Cartesian Multipole Moments
 -----------------------------------------------------------------
    Charge (ESU x 10^10)
                -0.0000
    Dipole Moment (Debye)
         X       4.7898      Y      -3.0637      Z     -12.7623
       Tot      13.9716
    Quadrupole Moments (Debye-Ang)
        XX     -17.5166     XY     -10.2144     YY     -48.6084
        XZ     -43.5776     YZ       9.8977     ZZ     -76.4482
    Octopole Moments (Debye-Ang^2)
       XXX    -354.6415    XXY      63.8880    XYY    -171.4199
       YYY      70.6016    XXZ    -230.1584    XYZ     -15.6984
       YYZ    -220.2370    XZZ    -307.4363    YZZ     -27.5526
       ZZZ    -289.4871
    Hexadecapole Moments (Debye-Ang^3)
      XXXX   -3171.2260   XXXY     665.1504   XXYY   -1112.2438
      XYYY     -86.0586   YYYY   -1669.4027   XXXZ   -1523.0287
      XXYZ    -301.4415   XYYZ    -735.5977   YYYZ     390.5108
      XXZZ   -1477.9967   XYZZ    -199.7475   YYZZ    -387.3342
      XZZZ   -1169.0909   YZZZ    -178.9573   ZZZZ   -1140.4844
 -----------------------------------------------------------------
 Calculating analytic gradient of the SCF energy
 Gradient of CDS energy
            1           2           3           4           5           6
    1  -0.0005285  -0.0001422   0.0005523   0.0005173   0.0001556  -0.0005313
    2  -0.0010221   0.0009830  -0.0007150  -0.0001450  -0.0001683   0.0007386
    3  -0.0003350   0.0010009   0.0009175  -0.0010226   0.0004049  -0.0009036
            7           8           9          10          11          12
    1   0.0000255  -0.0003236  -0.0002605   0.0002526   0.0002983   0.0001842
    2   0.0000515   0.0002077   0.0000855  -0.0000768  -0.0002468   0.0009103
    3   0.0000359  -0.0000753  -0.0004146   0.0004144   0.0000700   0.0004068
           13          14          15          16
    1  -0.0000929  -0.0000244  -0.0000771  -0.0000054
    2  -0.0005481  -0.0002477   0.0002099  -0.0000168
    3   0.0000420  -0.0004037  -0.0001109  -0.0000269
 Gradient of SCF Energy
            1           2           3           4           5           6
    1   0.0042139  -0.0004655  -0.0017576  -0.0067586  -0.0021409  -0.0013431
    2   0.0034509  -0.0012806   0.0011006  -0.0015685   0.0013595   0.0010071
    3  -0.0017370  -0.0007146   0.0025000   0.0066577   0.0056133   0.0043945
            7           8           9          10          11          12
    1   0.0041646  -0.0000074   0.0034271   0.0020588  -0.0001288  -0.0018621
    2  -0.0012169  -0.0005270  -0.0000694  -0.0007725   0.0000276  -0.0016406
    3  -0.0081903  -0.0021039  -0.0014968  -0.0020797  -0.0038543   0.0015730
           13          14          15          16
    1   0.0007301  -0.0003987  -0.0006746   0.0009428
    2  -0.0006960   0.0025503   0.0009931  -0.0027178
    3  -0.0046491   0.0063923   0.0053925  -0.0076977
 Max gradient component =       8.190E-03
 RMS gradient           =       3.239E-03
 Computing fast CPCM-SWIG gradient
 Updating gradient with PCM contributions...
 -- total gradient after adding PCM contribution --
---------------------------------------------------
  Atom         X              Y              Z     
---------------------------------------------------
   1       0.000756       0.000236      -0.000628
   2      -0.000695      -0.000155       0.000456
   3      -0.000109      -0.000117      -0.000024
   4      -0.000082      -0.000038       0.000113
   5       0.000069      -0.000012       0.000021
   6       0.000050       0.000067       0.000010
   7      -0.000097      -0.000056       0.000039
   8       0.000010       0.000015       0.000002
   9       0.000023      -0.000008       0.000006
  10      -0.000010      -0.000016       0.000000
  11      -0.000008      -0.000004      -0.000001
  12       0.000092       0.000115      -0.000057
  13      -0.000094      -0.000073       0.000086
  14       0.000012       0.000023       0.000059
  15       0.000015      -0.000010      -0.000056
  16       0.000067       0.000032      -0.000026
---------------------------------------------------
 Number of fixed atoms: 0
 Gradient time:  CPU 1101.51 s  wall 46.24 s
 ----------------------------------------------------------------
             Standard Nuclear Orientation (Angstroms)
    I     Atom           X                Y                Z
 ----------------------------------------------------------------
    1      O       3.6597013038     1.1428493478     3.0334543084
    2      C       4.4903898220     1.3699581161     2.1743474040
    3      C       3.9909418599    -1.6942749399     1.4020363567
    4      O       5.4551908189     2.1803392020     2.1166485820
    5      O       4.4455750364     0.6322805506     0.9476778906
    6      C       3.4666690538    -0.3977869402     0.8059640261
    7      Li      5.9851561117     1.6556824494     0.4252772809
    8      H       4.1653135769    -1.5739595594     2.4723944405
    9      H       4.9178642283    -1.9991532734     0.9133455113
   10      H       2.5431574349    -0.0928205124     1.3004896876
   11      H       3.2887035648    -0.5108955297    -0.2646143449
   12      O       3.0028567481    -2.7245525605     1.2852413086
   13      C       2.9365659812    -3.3956137796     0.1154141022
   14      O       2.0435379315    -4.2776115993     0.0342681368
   15      O       3.7415850613    -3.1352998459    -0.8198812742
   16      Li      2.7727714664    -4.5213211254    -1.7012534167
 ----------------------------------------------------------------
 Nuclear Repulsion Energy =         588.76748344 hartrees
 There are       41 alpha and       41 beta electrons
 Discretize the solute cavity surface with Lebedev spheres
	Using 110 Lebedev grid points for each H atom
	Using 194 Lebedev grid points for other atoms
	Atomic van der Waals radii will be scaled by 1.20
 Remove points where switching function is < 1.0e-08
 Keep 1093 surface tesserae and discard 1675 interior tesserae
 Molecular Surface Area = 242.674 Angst**2
 Requested basis set is def2-TZVPPD
 There are 184 shells and 500 basis functions
 A cutoff of  1.0D-14 yielded  15090 shell pairs
 There are    112070 function pairs (    142752 Cartesian)
 Smallest overlap matrix eigenvalue = 4.81E-06
 Guess MOs from SCF MO coefficient file

 -----------------------------------------------------------------------
  General SCF calculation program by
  Eric Jon Sundstrom, Paul Horn, Yuezhi Mao, Dmitri Zuev, Alec White,
  David Stuck, Shaama M.S., Shane Yost, Joonho Lee, David Small,
  Daniel Levine, Susi Lehtola, Hugh Burton, Evgeny Epifanovsky,
  Bang C. Huynh
 -----------------------------------------------------------------------
 Exchange:     0.1670 Hartree-Fock + 1.0000 wB97X-V + LR-HF
 Correlation:  1.0000 wB97X-V
 Using SG-3 standard quadrature grid
 Nonlocal Correlation:  VV10 with C = 0.0100 and b = 6.00 and scale = 1.00000
 Grid used for NLC:  SG-1 standard quadrature
 
 Citation of the SMD model:
 Marenich, A.V.; Cramer, C.J.; Truhlar, D.G.
 J. Phys. Chem. B 2009, 113, 6378-6396.
 iSolventCode=           0
 Solvent: other                                                           
 
 vradii
            1           2           3           4           5           6
    1   2.2940000   1.8500000   1.8500000   2.2940000   2.2940000   1.8500000
            7           8           9          10          11          12
    1   2.1476001   1.2000000   1.2000000   1.2000000   1.2000000   2.2940000
           13          14          15          16
    1   1.8500000   2.2940000   2.2940000   2.1476001
 using 32 threads for integral computing
 -------------------------------------------------------
 OpenMP Integral computing Module                
 Release: version 1.0, May 2013, Q-Chem Inc. Pittsburgh 
 -------------------------------------------------------
 using 32 threads for integral computing
 -------------------------------------------------------
 OpenMP Integral computing Module                
 Release: version 1.0, May 2013, Q-Chem Inc. Pittsburgh 
 -------------------------------------------------------
 -------------------------------------------------------
 OpenMP BLAS3 based DFT computing Module                
 Release: version 1.0, May 2013, Q-Chem Inc. Pittsburgh 
 -------------------------------------------------------
 -------------------------------------------------------
 OpenMP BLAS3 based DFT computing Module                
 Release: version 1.0, May 2013, Q-Chem Inc. Pittsburgh 
 -------------------------------------------------------
 -------------------------------------------------------
 OpenMP BLAS3 based DFT computing Module                
 Release: version 1.0, May 2013, Q-Chem Inc. Pittsburgh 
 -------------------------------------------------------
 A restricted SCF calculation will be
 performed using Roothaan-Hall, DIIS
 SCF converges when DIIS error is below 1.0e-08
 ---------------------------------------
  Cycle       Energy         DIIS error
 ---------------------------------------
    1    -621.0886887042      2.41e-04  Roothaan Step
 ---------------------------------------
  Cycle       Energy         DIIS error
 ---------------------------------------
    1    -621.4978814913      2.99e-04  
    2    -621.4999771059      3.02e-04  
    3    -621.5018480960      5.89e-05  
    4    -621.5019488765      1.45e-05  
    5    -621.5019609551      7.88e-06  
    6    -621.5019628808      3.26e-06  
    7    -621.5019632491      9.68e-07  
    8    -621.5019632812      3.24e-07  
    9    -621.5019632856      1.19e-07  
   10    -621.5019632862      2.44e-08  
   11    -621.5019632862      1.06e-08  
   12    -621.5019632862      4.95e-09  Convergence criterion met
 ---------------------------------------
 SCF time:   CPU 4340.21s  wall 169.00s 
(3)  G-ENP(liq) elect-nuc-pol free energy of system     -621.501963286 a.u.
(4)  G-CDS(liq) cavity-dispersion-solvent structure 
     free energy                                               -3.4990 kcal/mol
(6)  G-S(liq) free energy of system                     -621.507539282 a.u.
 SCF   energy in the final basis set =     -621.5019632862
 Total energy in the final basis set =     -621.5075392820
 
 --------------------------------------------------------------
 
                    Orbital Energies (a.u.)
 --------------------------------------------------------------
 
 Alpha MOs
 -- Occupied --
-19.2477 -19.2459 -19.1797 -19.1751 -19.1750 -19.1712 -10.4168 -10.4100
-10.3165 -10.3152  -2.1056  -2.0988  -1.2435  -1.2323  -1.1461  -1.1338
 -1.1058  -1.0956  -0.8873  -0.7861  -0.6764  -0.6738  -0.6189  -0.6003
 -0.5964  -0.5920  -0.5756  -0.5626  -0.5411  -0.5161  -0.5060  -0.4836
 -0.4458  -0.4290  -0.4233  -0.4049  -0.3905  -0.3841  -0.3816  -0.3755
 -0.3716
 -- Virtual --
  0.0266   0.0296   0.0416   0.0454   0.0509   0.0512   0.0531   0.0651
  0.0842   0.1014   0.1077   0.1166   0.1215   0.1257   0.1284   0.1336
  0.1354   0.1360   0.1412   0.1435   0.1458   0.1494   0.1582   0.1632
  0.1636   0.1683   0.1736   0.1803   0.1845   0.1866   0.1919   0.2022
  0.2102   0.2168   0.2229   0.2325   0.2367   0.2416   0.2460   0.2574
  0.2626   0.2832   0.2872   0.2882   0.2962   0.3002   0.3054   0.3095
  0.3209   0.3254   0.3360   0.3384   0.3423   0.3477   0.3545   0.3583
  0.3618   0.3646   0.3759   0.3795   0.3853   0.3908   0.3930   0.4013
  0.4039   0.4073   0.4125   0.4181   0.4274   0.4321   0.4368   0.4399
  0.4442   0.4460   0.4483   0.4598   0.4662   0.4754   0.4786   0.4835
  0.4901   0.4948   0.4957   0.5007   0.5102   0.5155   0.5193   0.5289
  0.5312   0.5355   0.5455   0.5508   0.5559   0.5657   0.5731   0.5759
  0.5774   0.5815   0.5898   0.5938   0.6000   0.6150   0.6220   0.6302
  0.6376   0.6398   0.6469   0.6592   0.6654   0.6709   0.6741   0.6802
  0.6878   0.6905   0.6966   0.7007   0.7044   0.7173   0.7185   0.7290
  0.7377   0.7430   0.7510   0.7542   0.7634   0.7748   0.7780   0.7870
  0.7941   0.7968   0.8094   0.8123   0.8185   0.8271   0.8315   0.8357
  0.8401   0.8480   0.8591   0.8635   0.8746   0.8780   0.8887   0.9048
  0.9108   0.9128   0.9280   0.9346   0.9457   0.9557   0.9674   0.9728
  0.9925   1.0062   1.0116   1.0180   1.0350   1.0374   1.0421   1.0478
  1.0536   1.0723   1.0738   1.0805   1.0968   1.1169   1.1222   1.1533
  1.1621   1.1681   1.1990   1.2102   1.2211   1.2374   1.2450   1.2536
  1.2667   1.2810   1.2908   1.2945   1.3030   1.3215   1.3296   1.3415
  1.3486   1.3629   1.3962   1.4006   1.4041   1.4154   1.4196   1.4239
  1.4438   1.4490   1.4583   1.4697   1.4896   1.5073   1.5273   1.5711
  1.5849   1.6066   1.6233   1.6356   1.6729   1.7270   1.7394   1.7501
  1.7583   1.7851   1.8247   1.8321   1.8386   1.8732   1.8831   1.8976
  1.9059   1.9277   1.9420   1.9512   1.9550   1.9728   1.9887   2.0171
  2.0280   2.0406   2.0613   2.0652   2.0804   2.1185   2.1537   2.1629
  2.1882   2.2236   2.2274   2.2456   2.2653   2.2713   2.3111   2.3232
  2.3381   2.3429   2.3727   2.3912   2.4101   2.4479   2.4721   2.4780
  2.5028   2.5139   2.5357   2.5443   2.5927   2.5995   2.6430   2.6645
  2.6887   2.7398   2.7677   2.7777   2.7961   2.8763   2.9565   2.9647
  2.9730   2.9970   3.0172   3.0279   3.0459   3.0724   3.0770   3.0873
  3.0965   3.1022   3.1396   3.1706   3.1778   3.1855   3.2292   3.2646
  3.2800   3.2964   3.3155   3.3247   3.3441   3.3487   3.3610   3.3659
  3.3752   3.3906   3.3920   3.4256   3.4407   3.4459   3.4537   3.4635
  3.4934   3.5140   3.5398   3.5474   3.5547   3.5682   3.5694   3.6030
  3.6078   3.6254   3.6348   3.6404   3.6458   3.6599   3.6708   3.6743
  3.6992   3.7227   3.7264   3.7551   3.8216   3.8294   3.8534   3.8538
  3.8661   3.9181   3.9566   3.9671   4.0106   4.0539   4.0843   4.1063
  4.1462   4.1737   4.2010   4.2215   4.2413   4.2599   4.2868   4.3315
  4.3615   4.3933   4.4532   4.4916   4.5461   4.5668   4.6147   4.6493
  4.6642   4.7352   4.7887   4.8039   4.8252   4.8493   4.8840   4.8991
  4.9057   4.9519   5.0422   5.0501   5.1404   5.1478   5.1804   5.2312
  5.2558   5.2600   5.2781   5.2809   5.3140   5.3239   5.3317   5.3369
  5.3801   5.3990   5.4212   5.4559   5.5015   5.5063   5.5422   5.5657
  5.5776   5.6025   5.6190   5.6270   5.6474   5.6730   5.6900   5.7047
  5.7163   5.7297   5.7636   5.8477   5.8683   5.8772   5.9056   5.9356
  5.9482   6.0242   6.0691   6.0845   6.1069   6.1629   6.1761   6.2354
  6.2439   6.2566   6.2872   6.2890   6.3113   6.3336   6.3391   6.3562
  6.3865   6.4154   6.4597   6.5637   6.6172   6.6258   6.6571   6.6872
  6.6918   6.7145   6.7156   6.7266   6.7384   6.7748   6.8062   6.8528
  6.8705   6.9069   6.9374   6.9419   6.9553   7.0012   7.0576   7.1155
  7.1217   7.1626   7.1963   7.2681   7.2762   7.3465   7.4087   7.4452
  7.4803   7.5000   7.5304   7.6560   7.6643   7.7200   7.7306  14.8162
 15.1089  23.6651  23.6981  23.8585  23.9109  44.2437  44.2765  44.4042
 44.4405  44.5710  44.6815
 --------------------------------------------------------------
 
          Ground-State Mulliken Net Atomic Charges

     Atom                 Charge (a.u.)
  ----------------------------------------
      1 O                    -0.540730
      2 C                     0.645643
      3 C                     0.104243
      4 O                    -0.768104
      5 O                    -0.413762
      6 C                     0.040784
      7 Li                    0.887503
      8 H                     0.037944
      9 H                     0.082578
     10 H                     0.096345
     11 H                     0.041111
     12 O                    -0.244591
     13 C                     0.749875
     14 O                    -0.792097
     15 O                    -0.801177
     16 Li                    0.874434
  ----------------------------------------
  Sum of atomic charges =     0.000000

  Building new vdw surfaces
         Merz-Kollman RESP Net Atomic Charges

     Atom                 Charge (a.u.)
  ----------------------------------------
      1 O                    -0.624523
      2 C                     0.815333
      3 C                     0.059833
      4 O                    -0.791731
      5 O                    -0.522909
      6 C                    -0.014066
      7 Li                    0.868366
      8 H                     0.110272
      9 H                     0.110272
     10 H                     0.128529
     11 H                     0.128529
     12 O                    -0.406786
     13 C                     0.802703
     14 O                    -0.757977
     15 O                    -0.757977
     16 Li                    0.852133
  ----------------------------------------
  Sum of atomic charges =     0.000000

  Related Dipole Moment =    13.8235 (X  4.7258 Y -3.0481 Z -12.6279)

 -----------------------------------------------------------------
                    Cartesian Multipole Moments
 -----------------------------------------------------------------
    Charge (ESU x 10^10)
                 0.0000
    Dipole Moment (Debye)
         X       4.8006      Y      -3.0616      Z     -12.7676
       Tot      13.9796
    Quadrupole Moments (Debye-Ang)
        XX     -17.4275     XY     -10.1858     YY     -48.6004
        XZ     -43.5724     YZ       9.8954     ZZ     -76.4736
    Octopole Moments (Debye-Ang^2)
       XXX    -354.0305    XXY      64.0937    XYY    -171.3355
       YYY      70.6247    XXZ    -230.0353    XYZ     -15.6625
       YYZ    -220.2372    XZZ    -307.4542    YZZ     -27.5750
       ZZZ    -289.5973
    Hexadecapole Moments (Debye-Ang^3)
      XXXX   -3167.2420   XXXY     666.4794   XXYY   -1111.6649
      XYYY     -85.8202   YYYY   -1669.3003   XXXZ   -1521.9829
      XXYZ    -301.1050   XYYZ    -735.4732   YYYZ     390.5233
      XXZZ   -1477.7663   XYZZ    -199.7047   YYZZ    -387.3707
      XZZZ   -1169.2188   YZZZ    -179.0717   ZZZZ   -1140.9522
 -----------------------------------------------------------------
 Calculating analytic gradient of the SCF energy
 Gradient of CDS energy
            1           2           3           4           5           6
    1  -0.0005324  -0.0001379   0.0005523   0.0005173   0.0001556  -0.0005313
    2  -0.0010222   0.0009831  -0.0007150  -0.0001450  -0.0001683   0.0007386
    3  -0.0003302   0.0009964   0.0009175  -0.0010226   0.0004049  -0.0009037
            7           8           9          10          11          12
    1   0.0000255  -0.0003239  -0.0002605   0.0002525   0.0002983   0.0001842
    2   0.0000515   0.0002075   0.0000855  -0.0000766  -0.0002468   0.0009103
    3   0.0000359  -0.0000755  -0.0004146   0.0004145   0.0000700   0.0004068
           13          14          15          16
    1  -0.0000929  -0.0000244  -0.0000771  -0.0000054
    2  -0.0005481  -0.0002477   0.0002099  -0.0000168
    3   0.0000420  -0.0004037  -0.0001109  -0.0000269
 Gradient of SCF Energy
            1           2           3           4           5           6
    1   0.0027306   0.0008279  -0.0017636  -0.0065412  -0.0021714  -0.0013214
    2   0.0030193  -0.0010050   0.0010990  -0.0013987   0.0013268   0.0010319
    3  -0.0004381  -0.0017040   0.0025040   0.0064531   0.0054749   0.0044091
            7           8           9          10          11          12
    1   0.0041599  -0.0000064   0.0034300   0.0020565  -0.0001370  -0.0018639
    2  -0.0012086  -0.0005296  -0.0000671  -0.0007800   0.0000261  -0.0016439
    3  -0.0081684  -0.0021073  -0.0014988  -0.0020858  -0.0038513   0.0015742
           13          14          15          16
    1   0.0007323  -0.0003996  -0.0006765   0.0009438
    2  -0.0006954   0.0025508   0.0009922  -0.0027176
    3  -0.0046492   0.0063923   0.0053935  -0.0076982
 Max gradient component =       8.168E-03
 RMS gradient           =       3.169E-03
 Computing fast CPCM-SWIG gradient
 Updating gradient with PCM contributions...
 -- total gradient after adding PCM contribution --
---------------------------------------------------
  Atom         X              Y              Z     
---------------------------------------------------
   1      -0.000746      -0.000206       0.000664
   2       0.000608       0.000114      -0.000524
   3      -0.000113      -0.000117      -0.000024
   4       0.000152       0.000147      -0.000095
   5       0.000041      -0.000041      -0.000119
   6       0.000081       0.000088       0.000018
   7      -0.000106      -0.000050       0.000060
   8       0.000011       0.000012       0.000003
   9       0.000023      -0.000007       0.000006
  10      -0.000023      -0.000017       0.000004
  11      -0.000017      -0.000007       0.000002
  12       0.000091       0.000111      -0.000057
  13      -0.000094      -0.000071       0.000087
  14       0.000012       0.000023       0.000059
  15       0.000015      -0.000010      -0.000056
  16       0.000067       0.000032      -0.000026
---------------------------------------------------
 Number of fixed atoms: 0
 Gradient time:  CPU 1102.88 s  wall 46.32 s
 ----------------------------------------------------------------
             Standard Nuclear Orientation (Angstroms)
    I     Atom           X                Y                Z
 ----------------------------------------------------------------
    1      O       3.6607013038     1.1438493478     3.0334543084
    2      C       4.4903898220     1.3699581161     2.1743474040
    3      C       3.9909418599    -1.6942749399     1.4020363567
    4      O       5.4551908189     2.1803392020     2.1166485820
    5      O       4.4455750364     0.6322805506     0.9476778906
    6      C       3.4666690538    -0.3977869402     0.8059640261
    7      Li      5.9851561117     1.6556824494     0.4252772809
    8      H       4.1653135769    -1.5739595594     2.4723944405
    9      H       4.9178642283    -1.9991532734     0.9133455113
   10      H       2.5431574349    -0.0928205124     1.3004896876
   11      H       3.2887035648    -0.5108955297    -0.2646143449
   12      O       3.0028567481    -2.7245525605     1.2852413086
   13      C       2.9365659812    -3.3956137796     0.1154141022
   14      O       2.0435379315    -4.2776115993     0.0342681368
   15      O       3.7415850613    -3.1352998459    -0.8198812742
   16      Li      2.7727714664    -4.5213211254    -1.7012534167
 ----------------------------------------------------------------
 Nuclear Repulsion Energy =         588.78221007 hartrees
 There are       41 alpha and       41 beta electrons
 Discretize the solute cavity surface with Lebedev spheres
	Using 110 Lebedev grid points for each H atom
	Using 194 Lebedev grid points for other atoms
	Atomic van der Waals radii will be scaled by 1.20
 Remove points where switching function is < 1.0e-08
 Keep 1093 surface tesserae and discard 1675 interior tesserae
 Molecular Surface Area = 242.669 Angst**2
 Requested basis set is def2-TZVPPD
 There are 184 shells and 500 basis functions
 A cutoff of  1.0D-14 yielded  15090 shell pairs
 There are    112070 function pairs (    142752 Cartesian)
 Smallest overlap matrix eigenvalue = 4.81E-06
 Guess MOs from SCF MO coefficient file

 -----------------------------------------------------------------------
  General SCF calculation program by
  Eric Jon Sundstrom, Paul Horn, Yuezhi Mao, Dmitri Zuev, Alec White,
  David Stuck, Shaama M.S., Shane Yost, Joonho Lee, David Small,
  Daniel Levine, Susi Lehtola, Hugh Burton, Evgeny Epifanovsky,
  Bang C. Huynh
 -----------------------------------------------------------------------
 Exchange:     0.1670 Hartree-Fock + 1.0000 wB97X-V + LR-HF
 Correlation:  1.0000 wB97X-V
 Using SG-3 standard quadrature grid
 Nonlocal Correlation:  VV10 with C = 0.0100 and b = 6.00 and scale = 1.00000
 Grid used for NLC:  SG-1 standard quadrature
 
 Citation of the SMD model:
 Marenich, A.V.; Cramer, C.J.; Truhlar, D.G.
 J. Phys. Chem. B 2009, 113, 6378-6396.
 iSolventCode=           0
 Solvent: other                                                           
 
 vradii
            1           2           3           4           5           6
    1   2.2940000   1.8500000   1.8500000   2.2940000   2.2940000   1.8500000
            7           8           9          10          11          12
    1   2.1476001   1.2000000   1.2000000   1.2000000   1.2000000   2.2940000
           13          14          15          16
    1   1.8500000   2.2940000   2.2940000   2.1476001
 using 32 threads for integral computing
 -------------------------------------------------------
 OpenMP Integral computing Module                
 Release: version 1.0, May 2013, Q-Chem Inc. Pittsburgh 
 -------------------------------------------------------
 using 32 threads for integral computing
 -------------------------------------------------------
 OpenMP Integral computing Module                
 Release: version 1.0, May 2013, Q-Chem Inc. Pittsburgh 
 -------------------------------------------------------
 -------------------------------------------------------
 OpenMP BLAS3 based DFT computing Module                
 Release: version 1.0, May 2013, Q-Chem Inc. Pittsburgh 
 -------------------------------------------------------
 -------------------------------------------------------
 OpenMP BLAS3 based DFT computing Module                
 Release: version 1.0, May 2013, Q-Chem Inc. Pittsburgh 
 -------------------------------------------------------
 -------------------------------------------------------
 OpenMP BLAS3 based DFT computing Module                
 Release: version 1.0, May 2013, Q-Chem Inc. Pittsburgh 
 -------------------------------------------------------
 A restricted SCF calculation will be
 performed using Roothaan-Hall, DIIS
 SCF converges when DIIS error is below 1.0e-08
 ---------------------------------------
  Cycle       Energy         DIIS error
 ---------------------------------------
    1    -621.0883519538      2.42e-04  Roothaan Step
 ---------------------------------------
  Cycle       Energy         DIIS error
 ---------------------------------------
    1    -621.4979001350      2.97e-04  
    2    -621.5000051476      2.99e-04  
    3    -621.5018455760      5.92e-05  
    4    -621.5019465964      1.44e-05  
    5    -621.5019585468      7.86e-06  
    6    -621.5019604486      3.24e-06  
    7    -621.5019608133      9.56e-07  
    8    -621.5019608445      3.23e-07  
    9    -621.5019608489      1.17e-07  
   10    -621.5019608495      2.40e-08  
   11    -621.5019608495      1.03e-08  
   12    -621.5019608495      4.85e-09  Convergence criterion met
 ---------------------------------------
 SCF time:   CPU 4322.41s  wall 168.00s 
(3)  G-ENP(liq) elect-nuc-pol free energy of system     -621.501960849 a.u.
(4)  G-CDS(liq) cavity-dispersion-solvent structure 
     free energy                                               -3.5008 kcal/mol
(6)  G-S(liq) free energy of system                     -621.507539781 a.u.
 SCF   energy in the final basis set =     -621.5019608495
 Total energy in the final basis set =     -621.5075397806
 
 --------------------------------------------------------------
 
                    Orbital Energies (a.u.)
 --------------------------------------------------------------
 
 Alpha MOs
 -- Occupied --
-19.2477 -19.2459 -19.1797 -19.1751 -19.1748 -19.1712 -10.4168 -10.4099
-10.3165 -10.3152  -2.1055  -2.0988  -1.2435  -1.2324  -1.1462  -1.1339
 -1.1058  -1.0956  -0.8873  -0.7861  -0.6765  -0.6738  -0.6189  -0.6003
 -0.5964  -0.5920  -0.5756  -0.5626  -0.5411  -0.5161  -0.5060  -0.4836
 -0.4458  -0.4290  -0.4233  -0.4049  -0.3906  -0.3841  -0.3816  -0.3755
 -0.3716
 -- Virtual --
  0.0266   0.0296   0.0416   0.0454   0.0509   0.0512   0.0531   0.0651
  0.0842   0.1014   0.1077   0.1167   0.1215   0.1257   0.1284   0.1336
  0.1355   0.1360   0.1413   0.1435   0.1458   0.1494   0.1582   0.1632
  0.1637   0.1683   0.1736   0.1803   0.1845   0.1866   0.1919   0.2022
  0.2102   0.2168   0.2229   0.2325   0.2367   0.2416   0.2460   0.2574
  0.2626   0.2832   0.2872   0.2882   0.2962   0.3002   0.3054   0.3095
  0.3209   0.3254   0.3360   0.3384   0.3423   0.3477   0.3545   0.3583
  0.3618   0.3646   0.3759   0.3795   0.3853   0.3908   0.3931   0.4013
  0.4039   0.4073   0.4125   0.4181   0.4274   0.4321   0.4368   0.4399
  0.4441   0.4460   0.4484   0.4598   0.4662   0.4754   0.4786   0.4835
  0.4901   0.4948   0.4957   0.5007   0.5103   0.5155   0.5193   0.5289
  0.5314   0.5355   0.5455   0.5509   0.5559   0.5657   0.5731   0.5759
  0.5774   0.5815   0.5898   0.5939   0.6000   0.6150   0.6220   0.6301
  0.6377   0.6399   0.6469   0.6592   0.6654   0.6709   0.6742   0.6802
  0.6878   0.6906   0.6966   0.7007   0.7044   0.7174   0.7185   0.7290
  0.7377   0.7430   0.7510   0.7542   0.7634   0.7748   0.7780   0.7870
  0.7941   0.7969   0.8094   0.8123   0.8185   0.8271   0.8315   0.8357
  0.8401   0.8480   0.8591   0.8635   0.8746   0.8780   0.8888   0.9048
  0.9108   0.9128   0.9280   0.9346   0.9456   0.9557   0.9674   0.9728
  0.9925   1.0062   1.0116   1.0180   1.0350   1.0374   1.0422   1.0477
  1.0536   1.0724   1.0738   1.0805   1.0968   1.1169   1.1222   1.1533
  1.1621   1.1680   1.1990   1.2102   1.2211   1.2374   1.2451   1.2536
  1.2668   1.2810   1.2908   1.2946   1.3030   1.3215   1.3296   1.3415
  1.3485   1.3629   1.3962   1.4006   1.4041   1.4154   1.4196   1.4239
  1.4439   1.4490   1.4583   1.4697   1.4897   1.5074   1.5273   1.5711
  1.5849   1.6067   1.6233   1.6356   1.6730   1.7272   1.7394   1.7501
  1.7583   1.7850   1.8248   1.8321   1.8386   1.8732   1.8832   1.8978
  1.9059   1.9278   1.9420   1.9512   1.9549   1.9728   1.9888   2.0171
  2.0281   2.0406   2.0613   2.0651   2.0803   2.1187   2.1537   2.1630
  2.1882   2.2238   2.2275   2.2454   2.2651   2.2713   2.3111   2.3232
  2.3380   2.3428   2.3726   2.3913   2.4101   2.4481   2.4721   2.4780
  2.5029   2.5139   2.5359   2.5443   2.5928   2.5997   2.6430   2.6645
  2.6889   2.7398   2.7678   2.7777   2.7962   2.8763   2.9565   2.9647
  2.9730   2.9971   3.0173   3.0280   3.0461   3.0724   3.0770   3.0875
  3.0965   3.1022   3.1396   3.1706   3.1778   3.1855   3.2292   3.2646
  3.2800   3.2965   3.3155   3.3247   3.3441   3.3488   3.3611   3.3660
  3.3753   3.3907   3.3920   3.4255   3.4409   3.4459   3.4538   3.4636
  3.4935   3.5140   3.5398   3.5474   3.5549   3.5683   3.5695   3.6031
  3.6079   3.6254   3.6350   3.6405   3.6458   3.6603   3.6708   3.6743
  3.6995   3.7228   3.7265   3.7552   3.8216   3.8293   3.8534   3.8538
  3.8662   3.9180   3.9566   3.9670   4.0105   4.0539   4.0843   4.1062
  4.1462   4.1737   4.2015   4.2218   4.2415   4.2599   4.2870   4.3314
  4.3615   4.3933   4.4532   4.4915   4.5461   4.5668   4.6147   4.6488
  4.6641   4.7352   4.7887   4.8040   4.8251   4.8492   4.8837   4.8991
  4.9057   4.9518   5.0422   5.0501   5.1404   5.1478   5.1805   5.2312
  5.2558   5.2600   5.2782   5.2809   5.3139   5.3238   5.3317   5.3370
  5.3801   5.3990   5.4212   5.4559   5.5017   5.5063   5.5423   5.5657
  5.5777   5.6027   5.6192   5.6275   5.6475   5.6730   5.6902   5.7052
  5.7166   5.7299   5.7636   5.8477   5.8685   5.8773   5.9058   5.9356
  5.9483   6.0243   6.0691   6.0845   6.1070   6.1629   6.1761   6.2355
  6.2440   6.2566   6.2873   6.2890   6.3113   6.3340   6.3402   6.3562
  6.3875   6.4162   6.4597   6.5637   6.6172   6.6259   6.6575   6.6872
  6.6921   6.7146   6.7157   6.7273   6.7385   6.7751   6.8062   6.8528
  6.8706   6.9069   6.9376   6.9419   6.9553   7.0012   7.0577   7.1156
  7.1224   7.1630   7.1964   7.2682   7.2763   7.3479   7.4087   7.4452
  7.4808   7.5000   7.5303   7.6562   7.6653   7.7203   7.7307  14.8162
 15.1089  23.6651  23.6981  23.8612  23.9110  44.2437  44.2768  44.4043
 44.4410  44.5710  44.6815
 --------------------------------------------------------------
 
          Ground-State Mulliken Net Atomic Charges

     Atom                 Charge (a.u.)
  ----------------------------------------
      1 O                    -0.539693
      2 C                     0.645062
      3 C                     0.104295
      4 O                    -0.768514
      5 O                    -0.413751
      6 C                     0.040713
      7 Li                    0.887471
      8 H                     0.037974
      9 H                     0.082559
     10 H                     0.096339
     11 H                     0.041100
     12 O                    -0.244607
     13 C                     0.749888
     14 O                    -0.792088
     15 O                    -0.801182
     16 Li                    0.874434
  ----------------------------------------
  Sum of atomic charges =     0.000000

  Building new vdw surfaces
         Merz-Kollman RESP Net Atomic Charges

     Atom                 Charge (a.u.)
  ----------------------------------------
      1 O                    -0.624323
      2 C                     0.816030
      3 C                     0.059771
      4 O                    -0.792330
      5 O                    -0.523024
      6 C                    -0.014088
      7 Li                    0.868269
      8 H                     0.110289
      9 H                     0.110289
     10 H                     0.128504
     11 H                     0.128504
     12 O                    -0.406931
     13 C                     0.802883
     14 O                    -0.757970
     15 O                    -0.757970
     16 Li                    0.852094
  ----------------------------------------
  Sum of atomic charges =     0.000000

  Related Dipole Moment =    13.8199 (X  4.7191 Y -3.0529 Z -12.6254)

 -----------------------------------------------------------------
                    Cartesian Multipole Moments
 -----------------------------------------------------------------
    Charge (ESU x 10^10)
                 0.0000
    Dipole Moment (Debye)
         X       4.7940      Y      -3.0663      Z     -12.7650
       Tot      13.9760
    Quadrupole Moments (Debye-Ang)
        XX     -17.4842     XY     -10.2164     YY     -48.6111
        XZ     -43.5772     YZ       9.8878     ZZ     -76.4583
    Octopole Moments (Debye-Ang^2)
       XXX    -354.4314    XXY      63.9059    XYY    -171.4104
       YYY      70.5751    XXZ    -230.1188    XYZ     -15.7186
       YYZ    -220.2574    XZZ    -307.4393    YZZ     -27.5925
       ZZZ    -289.5275
    Hexadecapole Moments (Debye-Ang^3)
      XXXX   -3169.9227   XXXY     665.3370   XXYY   -1112.1320
      XYYY     -86.0950   YYYY   -1669.4482   XXXZ   -1522.6813
      XXYZ    -301.4679   XYYZ    -735.6243   YYYZ     390.4221
      XXZZ   -1477.8840   XYZZ    -199.8451   YYZZ    -387.4192
      XZZZ   -1169.1052   YZZZ    -179.1249   ZZZZ   -1140.6440
 -----------------------------------------------------------------
 Calculating analytic gradient of the SCF energy
 Gradient of CDS energy
            1           2           3           4           5           6
    1  -0.0005304  -0.0001401   0.0005522   0.0005173   0.0001556  -0.0005314
    2  -0.0010218   0.0009827  -0.0007150  -0.0001450  -0.0001683   0.0007386
    3  -0.0003326   0.0009988   0.0009175  -0.0010226   0.0004049  -0.0009035
            7           8           9          10          11          12
    1   0.0000255  -0.0003237  -0.0002605   0.0002525   0.0002983   0.0001842
    2   0.0000515   0.0002074   0.0000855  -0.0000766  -0.0002468   0.0009103
    3   0.0000359  -0.0000756  -0.0004146   0.0004144   0.0000700   0.0004068
           13          14          15          16
    1  -0.0000929  -0.0000244  -0.0000771  -0.0000054
    2  -0.0005481  -0.0002477   0.0002099  -0.0000168
    3   0.0000420  -0.0004037  -0.0001109  -0.0000269
 Gradient of SCF Energy
            1           2           3           4           5           6
    1   0.0036904   0.0000415  -0.0017632  -0.0067488  -0.0021372  -0.0013285
    2   0.0034092  -0.0013473   0.0011007  -0.0014770   0.0013750   0.0010205
    3  -0.0012178  -0.0010766   0.0025009   0.0066161   0.0054924   0.0044016
            7           8           9          10          11          12
    1   0.0041595  -0.0000073   0.0034306   0.0020581  -0.0001312  -0.0018635
    2  -0.0012188  -0.0005266  -0.0000700  -0.0007769   0.0000257  -0.0016441
    3  -0.0081854  -0.0021022  -0.0015004  -0.0020829  -0.0038562   0.0015711
           13          14          15          16
    1   0.0007319  -0.0004007  -0.0006751   0.0009434
    2  -0.0006936   0.0025486   0.0009917  -0.0027171
    3  -0.0046457   0.0063913   0.0053911  -0.0076973
 Max gradient component =       8.185E-03
 RMS gradient           =       3.214E-03
 Computing fast CPCM-SWIG gradient
 Updating gradient with PCM contributions...
 -- total gradient after adding PCM contribution --
---------------------------------------------------
  Atom         X              Y              Z     
---------------------------------------------------
   1       0.000225       0.000200      -0.000108
   2      -0.000179      -0.000235       0.000094
   3      -0.000109      -0.000115      -0.000021
   4      -0.000070       0.000058       0.000071
   5       0.000072       0.000003      -0.000102
   6       0.000066       0.000079       0.000013
   7      -0.000103      -0.000056       0.000044
   8       0.000010       0.000014      -0.000000
   9       0.000022      -0.000008       0.000005
  10      -0.000014      -0.000019      -0.000000
  11      -0.000010      -0.000006      -0.000001
  12       0.000091       0.000111      -0.000060
  13      -0.000094      -0.000070       0.000089
  14       0.000011       0.000022       0.000058
  15       0.000015      -0.000011      -0.000057
  16       0.000067       0.000032      -0.000026
---------------------------------------------------
 Number of fixed atoms: 0
 Gradient time:  CPU 1100.77 s  wall 45.67 s
 ----------------------------------------------------------------
             Standard Nuclear Orientation (Angstroms)
    I     Atom           X                Y                Z
 ----------------------------------------------------------------
    1      O       3.6607013038     1.1418493478     3.0334543084
    2      C       4.4903898220     1.3699581161     2.1743474040
    3      C       3.9909418599    -1.6942749399     1.4020363567
    4      O       5.4551908189     2.1803392020     2.1166485820
    5      O       4.4455750364     0.6322805506     0.9476778906
    6      C       3.4666690538    -0.3977869402     0.8059640261
    7      Li      5.9851561117     1.6556824494     0.4252772809
    8      H       4.1653135769    -1.5739595594     2.4723944405
    9      H       4.9178642283    -1.9991532734     0.9133455113
   10      H       2.5431574349    -0.0928205124     1.3004896876
   11      H       3.2887035648    -0.5108955297    -0.2646143449
   12      O       3.0028567481    -2.7245525605     1.2852413086
   13      C       2.9365659812    -3.3956137796     0.1154141022
   14      O       2.0435379315    -4.2776115993     0.0342681368
   15      O       3.7415850613    -3.1352998459    -0.8198812742
   16      Li      2.7727714664    -4.5213211254    -1.7012534167
 ----------------------------------------------------------------
 Nuclear Repulsion Energy =         588.79078463 hartrees
 There are       41 alpha and       41 beta electrons
 Discretize the solute cavity surface with Lebedev spheres
	Using 110 Lebedev grid points for each H atom
	Using 194 Lebedev grid points for other atoms
	Atomic van der Waals radii will be scaled by 1.20
 Remove points where switching function is < 1.0e-08
 Keep 1092 surface tesserae and discard 1676 interior tesserae
 Molecular Surface Area = 242.661 Angst**2
 Requested basis set is def2-TZVPPD
 There are 184 shells and 500 basis functions
 A cutoff of  1.0D-14 yielded  15090 shell pairs
 There are    112070 function pairs (    142752 Cartesian)
 Smallest overlap matrix eigenvalue = 4.81E-06
 Guess MOs from SCF MO coefficient file

 -----------------------------------------------------------------------
  General SCF calculation program by
  Eric Jon Sundstrom, Paul Horn, Yuezhi Mao, Dmitri Zuev, Alec White,
  David Stuck, Shaama M.S., Shane Yost, Joonho Lee, David Small,
  Daniel Levine, Susi Lehtola, Hugh Burton, Evgeny Epifanovsky,
  Bang C. Huynh
 -----------------------------------------------------------------------
 Exchange:     0.1670 Hartree-Fock + 1.0000 wB97X-V + LR-HF
 Correlation:  1.0000 wB97X-V
 Using SG-3 standard quadrature grid
 Nonlocal Correlation:  VV10 with C = 0.0100 and b = 6.00 and scale = 1.00000
 Grid used for NLC:  SG-1 standard quadrature
 
 Citation of the SMD model:
 Marenich, A.V.; Cramer, C.J.; Truhlar, D.G.
 J. Phys. Chem. B 2009, 113, 6378-6396.
 iSolventCode=           0
 Solvent: other                                                           
 
 vradii
            1           2           3           4           5           6
    1   2.2940000   1.8500000   1.8500000   2.2940000   2.2940000   1.8500000
            7           8           9          10          11          12
    1   2.1476001   1.2000000   1.2000000   1.2000000   1.2000000   2.2940000
           13          14          15          16
    1   1.8500000   2.2940000   2.2940000   2.1476001
 using 32 threads for integral computing
 -------------------------------------------------------
 OpenMP Integral computing Module                
 Release: version 1.0, May 2013, Q-Chem Inc. Pittsburgh 
 -------------------------------------------------------
 using 32 threads for integral computing
 -------------------------------------------------------
 OpenMP Integral computing Module                
 Release: version 1.0, May 2013, Q-Chem Inc. Pittsburgh 
 -------------------------------------------------------
 -------------------------------------------------------
 OpenMP BLAS3 based DFT computing Module                
 Release: version 1.0, May 2013, Q-Chem Inc. Pittsburgh 
 -------------------------------------------------------
 -------------------------------------------------------
 OpenMP BLAS3 based DFT computing Module                
 Release: version 1.0, May 2013, Q-Chem Inc. Pittsburgh 
 -------------------------------------------------------
 -------------------------------------------------------
 OpenMP BLAS3 based DFT computing Module                
 Release: version 1.0, May 2013, Q-Chem Inc. Pittsburgh 
 -------------------------------------------------------
 A restricted SCF calculation will be
 performed using Roothaan-Hall, DIIS
 SCF converges when DIIS error is below 1.0e-08
 ---------------------------------------
  Cycle       Energy         DIIS error
 ---------------------------------------
    1    -621.0889620660      2.42e-04  Roothaan Step
 ---------------------------------------
  Cycle       Energy         DIIS error
 ---------------------------------------
    1    -621.4978927009      2.98e-04  
    2    -621.4999928169      3.01e-04  
    3    -621.5018494878      5.91e-05  
    4    -621.5019504275      1.44e-05  
    5    -621.5019624504      7.87e-06  
    6    -621.5019643639      3.25e-06  
    7    -621.5019647304      9.62e-07  
    8    -621.5019647621      3.24e-07  
[...]
 Mode:                16                     17                     18
 Frequency:       631.83                 662.12                 706.38
 Force Cnst:      1.9841                 1.2841                 1.7984
 Red. Mass:       8.4357                 4.9713                 6.1171
 IR Active:          YES                    YES                    YES
 IR Intens:       86.136                 20.838                  7.132
 Raman Active:       YES                    YES                    YES
               X      Y      Z        X      Y      Z        X      Y      Z
 O          0.045  0.020 -0.031   -0.059 -0.158 -0.198    0.058  0.010 -0.099
 C          0.073  0.086  0.027    0.070  0.041 -0.021    0.108  0.012 -0.023
 C         -0.190 -0.221 -0.082   -0.040 -0.042 -0.023    0.144  0.151  0.049
 O          0.022  0.173  0.267    0.153  0.051 -0.148    0.035  0.162  0.191
 O         -0.053 -0.064 -0.076   -0.130  0.082  0.321   -0.116 -0.179  0.066
 C         -0.144 -0.177 -0.076   -0.020  0.015  0.046   -0.203 -0.196 -0.037
 Li         0.161 -0.021 -0.279   -0.031  0.035  0.108    0.095  0.001 -0.130
 H          0.025 -0.177 -0.124    0.163 -0.143 -0.047    0.119  0.232  0.044
 H         -0.288 -0.279 -0.230   -0.136 -0.009 -0.225    0.167  0.282  0.011
 H         -0.160 -0.161 -0.111   -0.310 -0.135 -0.407   -0.355 -0.341 -0.234
 H         -0.108 -0.153 -0.088    0.559  0.098 -0.058    0.076 -0.342 -0.069
 O         -0.112 -0.113  0.027   -0.021 -0.034  0.010    0.070  0.181 -0.004
 C          0.112  0.074 -0.043    0.021  0.005 -0.009   -0.066  0.020  0.052
 O          0.051  0.207  0.296    0.007  0.035  0.046    0.021 -0.093 -0.180
 O          0.105  0.043 -0.111    0.020  0.009 -0.020   -0.090 -0.072  0.041
 Li         0.037 -0.069 -0.192    0.006 -0.005 -0.019   -0.015  0.022  0.060
 TransDip   0.012 -0.158 -0.252   -0.055 -0.113 -0.074    0.072  0.036 -0.030

 Mode:                19                     20                     21
 Frequency:       715.81                 800.78                 820.51
 Force Cnst:      1.5345                 0.5471                 4.7175
 Red. Mass:       5.0831                 1.4480                11.8930
 IR Active:          YES                    YES                    YES
 IR Intens:       22.810                 38.674                 39.775
 Raman Active:       YES                    YES                    YES
               X      Y      Z        X      Y      Z        X      Y      Z
 O         -0.001  0.014  0.031    0.027  0.040  0.009    0.165 -0.160  0.094
 C         -0.020 -0.008  0.004    0.002 -0.055 -0.035   -0.532  0.592 -0.377
 C         -0.030  0.016  0.062   -0.020  0.026  0.060   -0.001  0.013  0.015
 O         -0.021 -0.028 -0.015   -0.050 -0.016  0.029    0.138 -0.167  0.114
 O          0.033  0.016 -0.041    0.021  0.003 -0.037    0.103 -0.125  0.086
 C          0.019  0.039  0.008   -0.013  0.037  0.070   -0.016 -0.020  0.011
 Li        -0.014 -0.004  0.012   -0.006 -0.013 -0.011   -0.013  0.013 -0.017
 H          0.552 -0.019 -0.032    0.363 -0.328  0.035    0.101 -0.042  0.001
 H         -0.333 -0.120 -0.428   -0.187  0.228 -0.386   -0.043  0.080 -0.107
 H         -0.042  0.160 -0.182   -0.188  0.235 -0.387   -0.047  0.058 -0.103
 H          0.167 -0.111 -0.003    0.399 -0.297  0.035    0.099 -0.094 -0.002
 O         -0.124  0.007  0.281    0.024 -0.008 -0.052    0.016  0.012 -0.017
 C          0.073  0.076  0.060   -0.003 -0.035 -0.022   -0.007 -0.001 -0.001
 O          0.159  0.081 -0.142   -0.043 -0.022  0.023   -0.007 -0.009 -0.002
 O         -0.104 -0.204 -0.216    0.025  0.040  0.023    0.001  0.005  0.011
 Li         0.024  0.067  0.085   -0.001 -0.003 -0.002   -0.001 -0.001 -0.000
 TransDip   0.018  0.085  0.126    0.019 -0.127 -0.152   -0.126  0.121 -0.102

 Mode:                22                     23                     24
 Frequency:       841.08                 861.70                 980.85
 Force Cnst:      5.1161                 2.9862                 3.9067
 Red. Mass:      12.2750                 6.8258                 6.8922
 IR Active:          YES                    YES                    YES
 IR Intens:       42.994                365.982                 18.586
 Raman Active:       YES                    YES                    YES
               X      Y      Z        X      Y      Z        X      Y      Z
 O         -0.012 -0.004  0.009   -0.219 -0.140  0.100    0.001 -0.003 -0.005
 C          0.001  0.008  0.022    0.023  0.253  0.383    0.003 -0.002 -0.004
 C         -0.009 -0.018  0.006   -0.010  0.044  0.052    0.201  0.203  0.095
 O          0.004 -0.003 -0.014    0.199  0.066 -0.182    0.007  0.009  0.003
 O          0.013  0.005 -0.021    0.054 -0.105 -0.212   -0.006 -0.023  0.032
 C         -0.003  0.012  0.009   -0.069 -0.075 -0.017   -0.017 -0.013 -0.066
 Li        -0.003  0.002  0.006    0.025  0.061  0.066    0.003  0.001 -0.002
 H          0.046 -0.077  0.001    0.243 -0.159  0.031    0.417  0.547  0.025
 H         -0.018  0.059 -0.067   -0.114  0.203 -0.249    0.059  0.001 -0.038
 H         -0.032  0.066 -0.079   -0.096  0.080 -0.153    0.054 -0.152  0.153
 H          0.066 -0.032 -0.001   -0.118 -0.540  0.029   -0.179  0.042 -0.041
 O          0.121 -0.137  0.076    0.017  0.023 -0.044   -0.179 -0.034  0.204
 C         -0.571  0.608 -0.325    0.010 -0.022  0.008   -0.021 -0.121 -0.224
 O          0.158 -0.165  0.091   -0.024 -0.013  0.000   -0.219 -0.158  0.097
 O          0.161 -0.168  0.088    0.002  0.021  0.014    0.246  0.124 -0.198
 Li        -0.023  0.025 -0.013   -0.001 -0.005 -0.005    0.004  0.017  0.024
 TransDip  -0.132  0.156 -0.050    0.068  0.368  0.486    0.037 -0.019 -0.132

 Mode:                25                     26                     27
 Frequency:      1085.40                1125.83                1147.98
 Force Cnst:      3.1628                 5.4552                 3.3307
 Red. Mass:       4.5565                 7.3050                 4.2896
 IR Active:          YES                    YES                    YES
 IR Intens:       23.185                593.770                 37.579
 Raman Active:       YES                    YES                    YES
               X      Y      Z        X      Y      Z        X      Y      Z
 O          0.023  0.004 -0.029    0.043  0.000 -0.056    0.005 -0.004 -0.011
 C          0.012  0.032  0.022    0.029  0.084  0.078    0.004  0.010  0.010
 C         -0.259  0.185 -0.162    0.210  0.019  0.007   -0.160 -0.220  0.122
 O         -0.011 -0.002  0.021   -0.014  0.012  0.045    0.013  0.019  0.011
 O         -0.128 -0.084 -0.034   -0.278 -0.324 -0.078   -0.096 -0.075  0.005
 C          0.322 -0.112  0.172    0.167  0.398  0.013    0.050  0.111 -0.107
 Li         0.009  0.009 -0.003    0.033  0.023 -0.008    0.011  0.008 -0.005
 H         -0.164  0.356 -0.199   -0.063 -0.289  0.089    0.305 -0.148  0.054
 H         -0.250  0.249 -0.172    0.281 -0.140  0.229   -0.326 -0.495 -0.051
 H          0.269 -0.293  0.180   -0.022  0.286 -0.227    0.163  0.267  0.038
 H          0.227 -0.241  0.204    0.189  0.310  0.002   -0.245  0.330 -0.091
 O          0.054  0.020  0.054   -0.121 -0.140 -0.049    0.198  0.222  0.079
 C         -0.003 -0.021 -0.025    0.010  0.034  0.050   -0.005 -0.032 -0.048
 O         -0.023 -0.019 -0.005    0.038  0.045  0.019   -0.084 -0.094 -0.027
 O          0.020  0.008 -0.016   -0.019 -0.011  0.013    0.049  0.027 -0.041
 Li         0.000  0.004  0.007   -0.000 -0.009 -0.016   -0.000  0.007  0.013
 TransDip   0.080  0.124  0.045    0.345  0.617  0.331   -0.078 -0.151 -0.099

 Mode:                28                     29                     30
 Frequency:      1183.70                1291.78                1306.54
 Force Cnst:      1.9018                 1.3587                 4.0325
 Red. Mass:       2.3038                 1.3819                 4.0093
 IR Active:          YES                    YES                    YES
 IR Intens:       25.479                187.103                320.914
 Raman Active:       YES                    YES                    YES
               X      Y      Z        X      Y      Z        X      Y      Z
 O         -0.011 -0.001  0.017   -0.029 -0.007  0.033   -0.137 -0.022  0.168
 C         -0.002  0.011  0.010   -0.026 -0.055 -0.055   -0.093 -0.191 -0.195
 C          0.023 -0.108 -0.157    0.014 -0.031 -0.053    0.003  0.019  0.039
 O         -0.005 -0.008 -0.005    0.056  0.052  0.005    0.197  0.178  0.013
 O          0.042 -0.007 -0.069   -0.037  0.000  0.035   -0.018 -0.045 -0.075
 C         -0.083  0.049  0.162    0.030 -0.024 -0.042    0.021 -0.003  0.072
 Li        -0.002 -0.001  0.002   -0.001 -0.002 -0.003   -0.014 -0.013 -0.003
 H         -0.428  0.052 -0.097   -0.208 -0.359  0.012    0.194  0.474 -0.036
 H          0.310 -0.060  0.351    0.239  0.475  0.038   -0.127 -0.228 -0.039
 H         -0.384 -0.040 -0.342    0.274  0.558  0.033   -0.032 -0.003 -0.033
 H          0.450  0.034  0.075   -0.155 -0.319  0.014    0.329  0.575 -0.025
 O          0.019  0.085  0.108   -0.019  0.020  0.053   -0.003 -0.028 -0.044
 C         -0.004 -0.017 -0.009   -0.006 -0.004  0.007    0.002 -0.017 -0.042
 O         -0.033 -0.033 -0.007   -0.004 -0.004 -0.001    0.021  0.022  0.005
 O          0.041  0.014 -0.051    0.015  0.003 -0.022   -0.029 -0.008  0.037
 Li        -0.001  0.002  0.005   -0.001  0.000  0.001    0.001  0.003  0.004
 TransDip  -0.096 -0.128 -0.025   -0.131 -0.338 -0.246   -0.206 -0.407 -0.348

 Mode:                31                     32                     33
 Frequency:      1340.60                1361.67                1420.00
 Force Cnst:      1.1321                 1.6717                 2.8423
 Red. Mass:       1.0692                 1.5303                 2.3925
 IR Active:          YES                    YES                    YES
 IR Intens:        1.005                 43.162                504.465
 Raman Active:       YES                    YES                    YES
               X      Y      Z        X      Y      Z        X      Y      Z
 O         -0.003  0.000  0.006    0.020  0.002 -0.027    0.006  0.000 -0.009
 C         -0.004 -0.000  0.000    0.022  0.046  0.044    0.015  0.028  0.021
 C         -0.021 -0.002  0.030    0.008 -0.104  0.032    0.036  0.030  0.014
 O          0.003  0.002 -0.000   -0.036 -0.034 -0.003   -0.017 -0.018 -0.002
 O          0.012 -0.007 -0.028   -0.019  0.000 -0.010   -0.017  0.007 -0.017
 C          0.020 -0.012 -0.025    0.008 -0.061  0.024   -0.011 -0.139  0.037
 Li        -0.001 -0.001 -0.000    0.005  0.005 -0.000    0.002  0.003  0.000
 H         -0.040 -0.459  0.081    0.187  0.565 -0.064   -0.260  0.063  0.045
 H          0.089  0.503 -0.084    0.168  0.508 -0.062   -0.169 -0.118 -0.248
 H         -0.087 -0.461  0.060    0.071  0.387 -0.130    0.143  0.549 -0.105
 H          0.042  0.526 -0.082    0.043  0.366 -0.028    0.163  0.586 -0.061
 O         -0.009  0.013  0.028   -0.023  0.013 -0.002    0.001 -0.028 -0.052
 C          0.003  0.002  0.004   -0.001 -0.049 -0.098    0.011  0.126  0.219
 O         -0.006 -0.006 -0.001    0.033  0.034  0.008   -0.067 -0.073 -0.018
 O          0.006  0.001 -0.010   -0.036 -0.008  0.047    0.064  0.013 -0.088
 Li        -0.000 -0.000 -0.000    0.001  0.006  0.009   -0.002 -0.012 -0.018
 TransDip  -0.024 -0.018  0.013    0.070 -0.100 -0.171    0.140  0.464  0.532

 Mode:                34                     35                     36
 Frequency:      1462.08                1487.39                1502.84
 Force Cnst:      1.9001                 1.5082                 1.7512
 Red. Mass:       1.5087                 1.1570                 1.3160
 IR Active:          YES                    YES                    YES
 IR Intens:       58.786                 19.021                183.783
 Raman Active:       YES                    YES                    YES
               X      Y      Z        X      Y      Z        X      Y      Z
 O         -0.006  0.000  0.009    0.001 -0.001 -0.003   -0.001 -0.000  0.002
 C         -0.005 -0.015 -0.015    0.015  0.023  0.013   -0.001 -0.003 -0.004
 C          0.016 -0.124  0.044    0.006  0.021 -0.001   -0.076 -0.023 -0.024
 O          0.009  0.009  0.001   -0.012 -0.012 -0.002    0.002  0.002  0.000
 O          0.004 -0.004  0.003   -0.012 -0.010 -0.011    0.002  0.003 -0.001
 C         -0.000  0.106 -0.029   -0.075 -0.009 -0.032   -0.011  0.014 -0.008
 Li        -0.002 -0.002  0.001    0.002  0.002  0.000   -0.001 -0.001  0.000
 H         -0.265  0.491  0.017   -0.055 -0.126  0.024    0.695  0.071 -0.148
 H         -0.073  0.372 -0.420   -0.034 -0.096 -0.003    0.298  0.173  0.541
 H          0.015 -0.327  0.264    0.308  0.117  0.585    0.050 -0.054  0.147
 H          0.139 -0.358 -0.002    0.696  0.004 -0.148    0.141 -0.080 -0.020
 O         -0.004 -0.004 -0.025    0.005  0.010  0.015   -0.013 -0.020 -0.036
 C         -0.002  0.046  0.088   -0.007 -0.030 -0.044    0.017  0.068  0.093
 O         -0.022 -0.025 -0.008    0.014  0.015  0.004   -0.030 -0.033 -0.008
 O          0.025  0.005 -0.035   -0.010 -0.002  0.015    0.020  0.002 -0.030
 Li        -0.001 -0.004 -0.006    0.000  0.002  0.004   -0.000 -0.004 -0.008
 TransDip  -0.008  0.140  0.202    0.101 -0.077 -0.059    0.189  0.218  0.325

 Mode:                37                     38                     39
 Frequency:      1638.22                1806.70                3098.78
 Force Cnst:     18.7907                23.9073                 5.9922
 Red. Mass:      11.8836                12.4311                 1.0591
 IR Active:          YES                    YES                    YES
 IR Intens:      905.460                943.269                  1.651
 Raman Active:       YES                    YES                    YES
               X      Y      Z        X      Y      Z        X      Y      Z
 O         -0.000  0.000  0.001   -0.289 -0.085  0.288   -0.000 -0.000  0.000
 C         -0.002 -0.003 -0.003    0.659  0.317 -0.448    0.000 -0.000 -0.002
 C          0.020 -0.008 -0.030   -0.005  0.001 -0.001   -0.048  0.011 -0.024
 O          0.002  0.002  0.000   -0.166 -0.132  0.022    0.000  0.000  0.000
 O          0.000  0.002  0.004   -0.037 -0.022  0.026    0.001  0.001  0.000
 C         -0.006  0.004 -0.001    0.022  0.012 -0.016    0.035 -0.009  0.020
 Li        -0.001 -0.001  0.000   -0.016  0.005  0.032   -0.000 -0.000  0.000
 H         -0.224 -0.070  0.001    0.019 -0.050 -0.006    0.076  0.060  0.534
 H         -0.016 -0.003 -0.125    0.011  0.019  0.012    0.486 -0.164 -0.270
 H          0.022  0.022  0.030   -0.013 -0.051 -0.088   -0.358  0.119  0.201
 H          0.037 -0.101 -0.003   -0.148 -0.068  0.012   -0.061 -0.045 -0.421
 O         -0.046 -0.021  0.049   -0.000 -0.001  0.002   -0.001 -0.001 -0.000
 C          0.645  0.447 -0.300    0.001  0.001 -0.000    0.000  0.001  0.002
 O         -0.247 -0.224  0.015   -0.001 -0.000  0.000   -0.000 -0.000 -0.000
 O         -0.207 -0.090  0.196   -0.000 -0.000  0.000    0.000  0.000 -0.000
 Li         0.037  0.024 -0.020    0.000  0.000 -0.000   -0.000  0.000  0.000
 TransDip   0.734  0.531 -0.329    0.755  0.366 -0.513   -0.038 -0.005 -0.016

 Mode:                40                     41                     42
 Frequency:      3105.02                3150.48                3170.07
 Force Cnst:      6.0070                 6.4801                 6.5792
 Red. Mass:       1.0575                 1.1081                 1.1112
 IR Active:          YES                    YES                    YES
 IR Intens:       67.202                  0.360                 18.793
 Raman Active:       YES                    YES                    YES
               X      Y      Z        X      Y      Z        X      Y      Z
 O          0.000  0.000 -0.000    0.000  0.000 -0.000   -0.000 -0.000  0.000
 C         -0.000  0.001  0.001   -0.000 -0.000  0.000    0.001  0.001 -0.001
 C         -0.037  0.007 -0.016    0.028 -0.017 -0.063    0.026 -0.015 -0.058
 O         -0.000 -0.000 -0.000    0.000  0.000 -0.000   -0.000 -0.000  0.000
 O         -0.001 -0.001 -0.000   -0.000 -0.000 -0.000   -0.000  0.000  0.001
 C         -0.046  0.009 -0.025   -0.027  0.015  0.056    0.030 -0.017 -0.063
 Li         0.000  0.000 -0.000    0.000  0.000 -0.000   -0.000 -0.000 -0.000
 H          0.058  0.044  0.396    0.084  0.056  0.536    0.075  0.046  0.483
 H          0.379 -0.129 -0.209   -0.424  0.143  0.225   -0.380  0.133  0.200
 H          0.471 -0.159 -0.262    0.404 -0.135 -0.216   -0.437  0.151  0.233
 H          0.083  0.058  0.551   -0.073 -0.045 -0.456    0.083  0.046  0.521
 O         -0.000 -0.000 -0.000    0.000 -0.000  0.000   -0.000  0.000  0.001
 C          0.000  0.001  0.001    0.001  0.001 -0.000    0.001  0.001 -0.001
 O         -0.000 -0.000 -0.000   -0.000 -0.000  0.000   -0.000 -0.000  0.000
 O          0.000 -0.000 -0.000   -0.000 -0.000 -0.000   -0.000 -0.000  0.000
 Li         0.000  0.000  0.000    0.000  0.000  0.000    0.000  0.000  0.000
 TransDip  -0.216 -0.044 -0.142    0.005 -0.011 -0.015    0.070 -0.028 -0.117

 STANDARD THERMODYNAMIC QUANTITIES AT   298.15 K  AND     1.00 ATM

   This Molecule has  0 Imaginary Frequencies
   Zero point vibrational energy:       60.495 kcal/mol

   Atom    1 Element O  Has Mass   15.99491
   Atom    2 Element C  Has Mass   12.00000
   Atom    3 Element C  Has Mass   12.00000
   Atom    4 Element O  Has Mass   15.99491
   Atom    5 Element O  Has Mass   15.99491
   Atom    6 Element C  Has Mass   12.00000
   Atom    7 Element Li Has Mass    7.01600
   Atom    8 Element H  Has Mass    1.00783
   Atom    9 Element H  Has Mass    1.00783
   Atom   10 Element H  Has Mass    1.00783
   Atom   11 Element H  Has Mass    1.00783
   Atom   12 Element O  Has Mass   15.99491
   Atom   13 Element C  Has Mass   12.00000
   Atom   14 Element O  Has Mass   15.99491
   Atom   15 Element O  Has Mass   15.99491
   Atom   16 Element Li Has Mass    7.01600
   Molecular Mass:   162.032780 amu
   Principal axes and moments of inertia in amu*Bohr^2:
                             1           2           3
    Eigenvalues --      541.10253  4063.73833  4440.04998
          X               0.32354    -0.56405     0.75972
          Y               0.87179    -0.13443    -0.47108
          Z               0.36784     0.81473     0.44823
   Rotational Symmetry Number is   1
   The Molecule is an Asymmetric Top
   Translational Enthalpy:        0.889 kcal/mol
   Rotational Enthalpy:           0.889 kcal/mol
   Vibrational Enthalpy:         66.211 kcal/mol
   gas constant (RT):             0.592 kcal/mol
   Translational Entropy:        41.156  cal/mol.K
   Rotational Entropy:           30.657  cal/mol.K
   Vibrational Entropy:          40.376  cal/mol.K

   Total Enthalpy:               68.581 kcal/mol
   Total Entropy:               112.190  cal/mol.K
Archival summary:
1\1\n0028.lr6\FREQ\ProcedureUnspecified\BasisUnspecified\64i24\ewcspott\FriMay2215:49:492020FriMay2215:49:492020\0\\#,FREQ,ProcedureUnspecified,BasisUnspecified,\\0,1\O\C,1,1.42807\H,2,1.09107,1,109.488\H,2,1.09115,1,106.495,3,118.431,0\C,1,1.43209,2,118.555,3,36.5507,0\O,5,1.21574,1,119.19,2,-3.29651,0\O,5,1.2613,1,108.403,2,177.033,0\C,2,1.52021,1,109.867,3,-121.704,0\H,8,1.09112,2,110.225,1,62.7614,0\H,8,1.09131,2,110.83,1,-58.6653,0\O,8,1.43228,2,110.095,1,178.909,0\C,11,1.35026,8,117.517,2,83.6911,0\O,12,1.25778,11,116.056,8,-178.76,0\O,12,1.26119,11,120.569,8,1.59956,0\Li,7,1.84848,5,94.5198,1,-0.531901,0\Li,13,1.89821,12,82.8917,11,-179.454,0\\\@

 Total job time:  20802.03s(wall), 528651.92s(cpu) 
 Fri May 22 15:49:49 2020

        *************************************************************
        *                                                           *
        *  Thank you very much for using Q-Chem.  Have a nice day.  *
        *                                                           *
        *************************************************************


