
Running Job 1 of 1 mol.qin
qchem mol.qin_220227.0 /tmp/scratch/ 0
/clusterfs/mp/software/qchem/exe/qcprog.exe_s mol.qin_220227.0 /tmp/scratch/
                  Welcome to Q-Chem
     A Quantum Leap Into The Future Of Chemistry


 Q-Chem 5.2, Q-Chem, Inc., Pleasanton, CA (2019)

 Yihan Shao,  Zhengting Gan,  E. Epifanovsky,  A. T. B. Gilbert,  M. Wormit,  
 J. Kussmann,  A. W. Lange,  A. Behn,  Jia Deng,  Xintian Feng,  D. Ghosh,  
 M. Goldey,  P. R. Horn,  L. D. Jacobson,  I. Kaliman,  T. Kus,  A. Landau,  
 Jie Liu,  E. I. Proynov,  R. M. Richard,  R. P. Steele,  E. J. Sundstrom,  
 H. L. Woodcock III,  P. M. Zimmerman,  D. Zuev,  B. Alam,  B. Albrecht,  
 E. Alguire,  S. A. Baeppler,  D. Barton,  Z. Benda,  Y. A. Bernard,  
 E. J. Berquist,  K. B. Bravaya,  H. Burton,  K. Carter-Fenk,  D. Casanova,  
 Chun-Min Chang,  Yunqing Chen,  A. Chien,  K. D. Closser,  M. P. Coons,  
 S. Coriani,  S. Dasgupta,  A. L. Dempwolff,  M. Diedenhofen,  Hainam Do,  
 R. G. Edgar,  Po-Tung Fang,  S. Faraji,  S. Fatehi,  Qingguo Feng,  
 J. Fosso-Tande,  J. Gayvert,  Qinghui Ge,  A. Ghysels,  G. Gidofalvi,  
 J. Gomes,  J. Gonthier,  A. Gunina,  D. Hait,  M. W. D. Hanson-Heine,  
 P. H. P. Harbach,  A. W. Hauser,  M. F. Herbst,  J. E. Herr,  
 E. G. Hohenstein,  Z. C. Holden,  Kerwin Hui,  B. C. Huynh,  T.-C. Jagau,  
 Hyunjun Ji,  B. Kaduk,  K. Khistyaev,  Jaehoon Kim,  P. Klunzinger,  K. Koh,  
 D. Kosenkov,  L. Koulias,  T. Kowalczyk,  C. M. Krauter,  A. Kunitsa,  
 Ka Un Lao,  A. Laurent,  K. V. Lawler,  Joonho Lee,  D. Lefrancois,  
 S. Lehtola,  D. S. Levine,  Yi-Pei Li,  You-Sheng Lin,  Fenglai Liu,  
 Kuan-Yu Liu,  E. Livshits,  M. Loipersberger,  A. Luenser,  P. Manohar,  
 E. Mansoor,  S. F. Manzer,  Shan-Ping Mao,  Yuezhi Mao,  N. Mardirossian,  
 A. V. Marenich,  T. Markovich,  L. A. Martinez-Martinez,  S. A. Maurer,  
 N. J. Mayhall,  S. C. McKenzie,  J.-M. Mewes,  P. Morgante,  A. F. Morrison,  
 J. W. Mullinax,  K. Nanda,  T. S. Nguyen-Beck,  R. Olivares-Amaya,  
 J. A. Parkhill,  S. K. Paul,  Zheng Pei,  T. M. Perrine,  F. Plasser,  
 P. Pokhilko,  S. Prager,  A. Prociuk,  E. Ramos,  B. Rana,  D. R. Rehn,  
 F. Rob,  M. Scheurer,  M. Schneider,  N. Sergueev,  S. M. Sharada,  
 S. Sharma,  D. W. Small,  T. Stauch,  C. J. Stein,  T. Stein,  Yu-Chuan Su,  
 S. P. Veccham,  A. J. W. Thom,  A. Tkatchenko,  T. Tsuchimochi,  
 N. M. Tubman,  L. Vogt,  M. L. Vidal,  O. Vydrov,  M. A. Watson,  J. Wenzel,  
 M. de Wergifosse,  T. A. Wesolowski,  A. White,  J. Witte,  A. Yamada,  
 Jun Yang,  K. Yao,  S. Yeganeh,  S. R. Yost,  Zhi-Qiang You,  A. Zech,  
 Igor Ying Zhang,  Xing Zhang,  Yan Zhao,  Ying Zhu,  B. R. Brooks,  
 G. K. L. Chan,  C. J. Cramer,  M. S. Gordon,  W. J. Hehre,  A. Klamt,  
 M. W. Schmidt,  C. D. Sherrill,  D. G. Truhlar,  A. Aspuru-Guzik,  R. Baer,  
 A. T. Bell,  N. A. Besley,  Jeng-Da Chai,  A. E. DePrince, III,  
 R. A. DiStasio Jr.,  A. Dreuw,  B. D. Dunietz,  T. R. Furlani,  
 Chao-Ping Hsu,  Yousung Jung,  Jing Kong,  D. S. Lambrecht,  WanZhen Liang,  
 C. Ochsenfeld,  V. A. Rassolov,  L. V. Slipchenko,  J. E. Subotnik,  
 T. Van Voorhis,  J. M. Herbert,  A. I. Krylov,  P. M. W. Gill,  M. Head-Gordon

 Contributors to earlier versions of Q-Chem not listed above: 
 R. D. Adamson,  B. Austin,  J. Baker,  G. J. O. Beran,  K. Brandhorst,  
 S. T. Brown,  E. F. C. Byrd,  A. K. Chakraborty,  C.-L. Cheng,  
 Siu Hung Chien,  D. M. Chipman,  D. L. Crittenden,  H. Dachsel,  
 R. J. Doerksen,  A. D. Dutoi,  L. Fusti-Molnar,  W. A. Goddard III,  
 A. Golubeva-Zadorozhnaya,  S. R. Gwaltney,  G. Hawkins,  A. Heyden,  
 S. Hirata,  G. Kedziora,  F. J. Keil,  C. Kelley,  Jihan Kim,  R. A. King,  
 R. Z. Khaliullin,  P. P. Korambath,  W. Kurlancheek,  A. M. Lee,  M. S. Lee,  
 S. V. Levchenko,  Ching Yeh Lin,  D. Liotard,  R. C. Lochan,  I. Lotan,  
 P. E. Maslen,  N. Nair,  D. P. O'Neill,  D. Neuhauser,  E. Neuscamman,  
 C. M. Oana,  R. Olson,  B. Peters,  R. Peverati,  P. A. Pieniazek,  
 Y. M. Rhee,  J. Ritchie,  M. A. Rohrdanz,  E. Rosta,  N. J. Russ,  
 H. F. Schaefer III,  N. E. Schultz,  N. Shenvi,  A. C. Simmonett,  A. Sodt,  
 D. Stuck,  K. S. Thanthiriwatte,  V. Vanovschi,  Tao Wang,  A. Warshel,  
 C. F. Williams,  Q. Wu,  X. Xu,  W. Zhang

 Please cite Q-Chem as follows:
 Y. Shao et al., Mol. Phys. 113, 184-215 (2015)
 DOI: 10.1080/00268976.2014.952696

 Q-Chem 5.2.2 for Intel X86 EM64T Linux

 Parts of Q-Chem use Armadillo 8.300.2 (Tropical Shenanigans).
 http://arma.sourceforge.net/

 Q-Chem begins on Tue Aug 11 02:14:37 2020  

Host: 
0

     Scratch files written to /tmp/scratch//
 Nov2519 |scratch|qcdevops|jenkins|workspace|build_RNUM 6829   
Processing $rem in /clusterfs/mp/software/qchem/config/preferences:
	 MEM_TOTAL  96000 
NAlpha2: 62
NElect   61
Mult     2
Symmetry turned off for PCM/SM12/SMD calculation

Checking the input file for inconsistencies... 	...done.

--------------------------------------------------------------
User input:
--------------------------------------------------------------
$molecule
0 2
C     -1.4420923595     -0.5490305962     -0.1388241651
C     -0.8377017028      0.4808589429      0.8124631109
O      0.4828792820      0.8770973032      0.3937281721
C      1.5277216412      0.1508962914      0.8237056071
O      1.3696503425     -0.8003252885      1.6391180705
O      2.6595070760      0.4858599422      0.3765178145
O     -2.7121913049     -0.8915817696      0.2498428783
Li      3.2546283440     -0.9377606300      1.4665951572
H     -0.7628976723     -1.4225146009     -0.1627040939
H     -1.4178060798     -0.1156767146     -1.1576999279
H     -0.8043459288      0.0895702672      1.8305212206
H     -1.4319721409      1.3980076506      0.7964617520
H     -4.6029084738      1.0652143737      0.3002994282
Li     -4.2622810228     -1.1254251714      0.7395649756
$end

$rem
job_type = freq
basis = def2-tzvppd
max_scf_cycles = 200
gen_scfman = true
xc_grid = 3
scf_algorithm = diis
resp_charges = true
symmetry = false
sym_ignore = true
method = wb97xv
solvent_method = smd
ideriv = 1
thresh = 14
$end

$smx
solvent other
$end
--------------------------------------------------------------
 ----------------------------------------------------------------
             Standard Nuclear Orientation (Angstroms)
    I     Atom           X                Y                Z
 ----------------------------------------------------------------
    1      C      -1.4420923595    -0.5490305962    -0.1388241651
    2      C      -0.8377017028     0.4808589429     0.8124631109
    3      O       0.4828792820     0.8770973032     0.3937281721
    4      C       1.5277216412     0.1508962914     0.8237056071
    5      O       1.3696503425    -0.8003252885     1.6391180705
    6      O       2.6595070760     0.4858599422     0.3765178145
    7      O      -2.7121913049    -0.8915817696     0.2498428783
    8      Li      3.2546283440    -0.9377606300     1.4665951572
    9      H      -0.7628976723    -1.4225146009    -0.1627040939
   10      H      -1.4178060798    -0.1156767146    -1.1576999279
   11      H      -0.8043459288     0.0895702672     1.8305212206
   12      H      -1.4319721409     1.3980076506     0.7964617520
   13      H      -4.6029084738     1.0652143737     0.3002994282
   14      Li     -4.2622810228    -1.1254251714     0.7395649756
 ----------------------------------------------------------------
 Nuclear Repulsion Energy =         354.85094029 hartrees
 There are       31 alpha and       30 beta electrons
 Requested basis set is def2-TZVPPD
 There are 150 shells and 400 basis functions

 Total QAlloc Memory Limit  96000 MB
 Mega-Array Size       188 MB
 MEM_STATIC part       192 MB
 
 Citation of the SMD model:
 Marenich, A.V.; Cramer, C.J.; Truhlar, D.G.
 J. Phys. Chem. B 2009, 113, 6378-6396.
 iSolventCode=           0
 Solvent: other                                                           
 
 vradii
            1           2           3           4           5           6
    1   1.8500000   1.8500000   2.2940000   1.8500000   2.2940000   2.2940000
            7           8           9          10          11          12
    1   2.2940000   2.1476001   1.2000000   1.2000000   1.2000000   1.2000000
           13          14
    1   1.2000000   2.1476001
 Changing PCM_VDW_RADII to SMD_RADIUS
 Discretize the solute cavity surface with Lebedev spheres
	Using 110 Lebedev grid points for each H atom
	Using 194 Lebedev grid points for other atoms
	Atomic van der Waals radii will be scaled by 1.20
 Remove points where switching function is < 1.0e-08
 Keep 1035 surface tesserae and discard 1261 interior tesserae
 Molecular Surface Area = 208.667 Angst**2

                       Distance Matrix (Angstroms)
             C (  1)   C (  2)   O (  3)   C (  4)   O (  5)   O (  6)
   C (  2)  1.526731
   O (  3)  2.454174  1.440930
   C (  4)  3.199399  2.388353  1.343110
   O (  5)  3.336184  2.682759  2.269605  1.262817
   O (  6)  4.261419  3.524279  2.211577  1.262187  2.216340
   O (  7)  1.371698  2.390365  3.654778  4.403742  4.312754  5.546939
   Li(  8)  4.978721  4.380358  3.482434  2.140254  1.897839  1.889215
   H (  9)  1.106729  2.139948  2.673909  2.948824  2.860322  3.955440
   H ( 10)  1.107472  2.138672  2.646721  3.559939  4.007599  4.397744
   H ( 11)  2.166299  1.091174  2.083632  2.540862  2.356864  3.777492
   H ( 12)  2.160051  1.092966  2.024895  3.211824  3.659484  4.212905
   H ( 13)  3.576224  3.844550  5.090123  6.220495  6.398760  7.285886
   Li( 14)  3.009529  3.783280  5.162000  5.929604  5.712577  7.116122
             O (  7)   Li(  8)   H (  9)   H ( 10)   H ( 11)   H ( 12)
   Li(  8)  6.089791
   H (  9)  2.061997  4.362352
   H ( 10)  2.063647  5.421659  1.768261
   H ( 11)  2.664785  4.202752  2.502212  3.057438
   H ( 12)  2.679547  5.279121  3.053360  2.471880  1.781910
   H ( 13)  2.721472  8.192255  4.598788  3.696639  4.209814  3.226727
   Li( 14)  1.642342  7.554318  3.626022  3.565143  3.824097  3.792308
             H ( 13)
   Li( 14)  2.260063
 
 A cutoff of  1.0D-14 yielded  10343 shell pairs
 There are     74503 function pairs (     93829 Cartesian)
 Smallest overlap matrix eigenvalue = 8.79E-06
 Guess from superposition of atomic densities
 Warning:  Energy on first SCF cycle will be non-variational
 SAD guess density has 61.000000 electrons

 -----------------------------------------------------------------------
  General SCF calculation program by
  Eric Jon Sundstrom, Paul Horn, Yuezhi Mao, Dmitri Zuev, Alec White,
  David Stuck, Shaama M.S., Shane Yost, Joonho Lee, David Small,
  Daniel Levine, Susi Lehtola, Hugh Burton, Evgeny Epifanovsky,
  Bang C. Huynh
 -----------------------------------------------------------------------
 Exchange:     0.1670 Hartree-Fock + 1.0000 wB97X-V + LR-HF
 Correlation:  1.0000 wB97X-V
 Using SG-3 standard quadrature grid
 Nonlocal Correlation:  VV10 with C = 0.0100 and b = 6.00 and scale = 1.00000
 Grid used for NLC:  SG-1 standard quadrature
 
 Citation of the SMD model:
 Marenich, A.V.; Cramer, C.J.; Truhlar, D.G.
 J. Phys. Chem. B 2009, 113, 6378-6396.
 iSolventCode=           0
 Solvent: other                                                           
 
 vradii
            1           2           3           4           5           6
    1   1.8500000   1.8500000   2.2940000   1.8500000   2.2940000   2.2940000
            7           8           9          10          11          12
    1   2.2940000   2.1476001   1.2000000   1.2000000   1.2000000   1.2000000
           13          14
    1   1.2000000   2.1476001
 using 40 threads for integral computing
 -------------------------------------------------------
 OpenMP Integral computing Module                
 Release: version 1.0, May 2013, Q-Chem Inc. Pittsburgh 
 -------------------------------------------------------
 using 40 threads for integral computing
 -------------------------------------------------------
 OpenMP Integral computing Module                
 Release: version 1.0, May 2013, Q-Chem Inc. Pittsburgh 
 -------------------------------------------------------
 -------------------------------------------------------
 OpenMP BLAS3 based DFT computing Module                
 Release: version 1.0, May 2013, Q-Chem Inc. Pittsburgh 
 -------------------------------------------------------
 -------------------------------------------------------
 OpenMP BLAS3 based DFT computing Module                
 Release: version 1.0, May 2013, Q-Chem Inc. Pittsburgh 
 -------------------------------------------------------
 -------------------------------------------------------
 OpenMP BLAS3 based DFT computing Module                
 Release: version 1.0, May 2013, Q-Chem Inc. Pittsburgh 
 -------------------------------------------------------
 A unrestricted SCF calculation will be
 performed using DIIS
 SCF converges when DIIS error is below 1.0e-08
 ---------------------------------------
  Cycle       Energy         DIIS error
 ---------------------------------------
    1    -434.2192397251      1.07e-02  
    2    -433.0268334727      2.30e-03  
    3    -432.9180114551      2.83e-03  
    4    -433.3512332567      2.93e-04  
    5    -433.3553259166      1.31e-04  
    6    -433.3565585328      2.54e-05  
    7    -433.3567537020      1.34e-05  
    8    -433.3568340344      1.04e-05  
    9    -433.3568884072      5.75e-06  
   10    -433.3569153779      2.51e-06  
   11    -433.3569195907      8.03e-07  
   12    -433.3569199699      2.66e-07  
   13    -433.3569199867      1.18e-07  
   14    -433.3569199887      5.52e-08  
   15    -433.3569199891      2.67e-08  
   16    -433.3569199892      6.71e-09  Convergence criterion met
 ---------------------------------------
 SCF time:   CPU 3321.71s  wall 136.00s 
<S^2> =          0.752443219
(3)  G-ENP(liq) elect-nuc-pol free energy of system     -433.356919989 a.u.
(4)  G-CDS(liq) cavity-dispersion-solvent structure 
     free energy                                               -2.2622 kcal/mol
(6)  G-S(liq) free energy of system                     -433.360525021 a.u.
 SCF   energy in the final basis set =     -433.3569199892
 Total energy in the final basis set =     -433.3605250211
 
 --------------------------------------------------------------
 
                    Orbital Energies (a.u.)
 --------------------------------------------------------------
 
 Alpha MOs
 -- Occupied --
-19.2338 -19.1716 -19.1675 -19.1209 -10.4088 -10.2939 -10.2782  -2.0923
 -2.0801  -1.2327  -1.1342  -1.0861  -1.0507  -0.8441  -0.7214  -0.6568
 -0.5934  -0.5884  -0.5728  -0.5400  -0.5027  -0.4977  -0.4761  -0.4390
 -0.4252  -0.4150  -0.4004  -0.3774  -0.3689  -0.3178  -0.3144
 -- Virtual --
  0.0307   0.0321   0.0439   0.0467   0.0518   0.0528   0.0590   0.0718
  0.0979   0.1135   0.1174   0.1206   0.1321   0.1358   0.1374   0.1390
  0.1483   0.1499   0.1572   0.1603   0.1650   0.1715   0.1734   0.1771
  0.1832   0.2002   0.2072   0.2111   0.2198   0.2290   0.2337   0.2439
  0.2555   0.2640   0.2662   0.2705   0.2860   0.2983   0.3022   0.3101
  0.3194   0.3211   0.3308   0.3366   0.3414   0.3490   0.3542   0.3647
  0.3725   0.3755   0.3791   0.3839   0.3886   0.3974   0.4082   0.4138
  0.4181   0.4208   0.4258   0.4322   0.4367   0.4382   0.4450   0.4476
  0.4503   0.4672   0.4717   0.4743   0.4838   0.4872   0.4963   0.5004
  0.5076   0.5149   0.5200   0.5247   0.5295   0.5486   0.5544   0.5599
  0.5621   0.5762   0.5832   0.5837   0.5951   0.6032   0.6051   0.6217
  0.6283   0.6365   0.6438   0.6481   0.6622   0.6773   0.6825   0.6870
  0.6932   0.7041   0.7139   0.7191   0.7262   0.7387   0.7420   0.7484
  0.7538   0.7772   0.7847   0.7931   0.8040   0.8164   0.8288   0.8299
  0.8446   0.8528   0.8578   0.8688   0.8715   0.8956   0.9051   0.9164
  0.9260   0.9423   0.9499   0.9595   0.9706   0.9761   0.9917   1.0034
  1.0114   1.0272   1.0365   1.0381   1.0489   1.0675   1.0828   1.0906
  1.1153   1.1187   1.1241   1.1360   1.1555   1.1983   1.2049   1.2273
  1.2406   1.2535   1.2604   1.2804   1.2986   1.3127   1.3178   1.3360
  1.3458   1.3693   1.3823   1.3876   1.4053   1.4091   1.4354   1.4514
  1.4607   1.4948   1.5214   1.5509   1.5628   1.5823   1.6242   1.6349
  1.7310   1.7487   1.7546   1.7745   1.7961   1.8033   1.8246   1.8830
  1.8996   1.9231   1.9404   1.9609   1.9941   2.0092   2.0177   2.0473
  2.0654   2.0975   2.1215   2.1563   2.1716   2.1797   2.2134   2.2448
  2.2726   2.2916   2.3269   2.3662   2.3957   2.4576   2.4632   2.4796
  2.4985   2.5104   2.5477   2.5624   2.6147   2.6480   2.6607   2.7361
  2.7461   2.8192   2.8537   2.9083   2.9815   2.9953   3.0163   3.0259
  3.0400   3.0612   3.0656   3.1184   3.1282   3.1352   3.1748   3.2235
  3.2345   3.2655   3.2840   3.2965   3.3044   3.3086   3.3173   3.3290
  3.3510   3.3619   3.3652   3.3707   3.3759   3.3935   3.4143   3.4377
  3.4412   3.4481   3.4649   3.4989   3.5298   3.5560   3.5594   3.5886
  3.6037   3.6205   3.6453   3.6501   3.6653   3.6868   3.7007   3.7572
  3.7953   3.8264   3.8407   3.8560   3.8671   3.8965   3.9082   3.9257
  3.9402   3.9732   4.0059   4.0523   4.0750   4.0975   4.1638   4.1665
  4.2103   4.2253   4.2561   4.3116   4.3407   4.3855   4.4302   4.4735
  4.5175   4.5363   4.6030   4.6667   4.7254   4.7442   4.7806   4.8068
  4.8552   4.8667   4.9157   5.0001   5.0505   5.1168   5.1240   5.1663
  5.1819   5.2227   5.2422   5.2868   5.3108   5.3330   5.3558   5.3858
  5.4075   5.4188   5.5062   5.5319   5.5628   5.5888   5.5992   5.6255
  5.6616   5.6752   5.6852   5.7122   5.7884   5.7913   5.8575   5.9103
  5.9341   5.9430   6.0757   6.0813   6.0885   6.1635   6.1770   6.2027
  6.2380   6.2604   6.2709   6.2772   6.3039   6.3166   6.3680   6.4722
  6.5590   6.6208   6.6502   6.6837   6.7160   6.7219   6.7479   6.7998
  6.8083   6.8616   6.9015   6.9586   7.0018   7.1217   7.1377   7.1662
  7.1861   7.2794   7.4085   7.4431   7.4771   7.5014   7.6577   7.7385
 14.8263  15.2634  23.6154  23.6751  23.9028  44.2364  44.3405  44.3860
 44.6510
 
 Beta MOs
 -- Occupied --
-19.2338 -19.1716 -19.1675 -19.1195 -10.4088 -10.2939 -10.2783  -2.0923
 -2.0799  -1.2328  -1.1342  -1.0861  -1.0477  -0.8437  -0.7207  -0.6568
 -0.5933  -0.5883  -0.5726  -0.5392  -0.5005  -0.4973  -0.4752  -0.4366
 -0.4149  -0.4006  -0.3773  -0.3689  -0.3164  -0.3131
 -- Virtual --
 -0.0136   0.0308   0.0369   0.0447   0.0482   0.0530   0.0533   0.0648
  0.0858   0.0997   0.1139   0.1210   0.1221   0.1329   0.1363   0.1377
  0.1394   0.1499   0.1512   0.1601   0.1618   0.1668   0.1725   0.1772
  0.1786   0.1843   0.2049   0.2096   0.2126   0.2239   0.2332   0.2351
  0.2452   0.2611   0.2671   0.2714   0.2883   0.2946   0.2999   0.3077
  0.3127   0.3200   0.3222   0.3352   0.3404   0.3419   0.3505   0.3580
  0.3665   0.3752   0.3768   0.3799   0.3854   0.3906   0.3995   0.4092
  0.4150   0.4205   0.4218   0.4305   0.4339   0.4379   0.4413   0.4474
  0.4493   0.4612   0.4687   0.4722   0.4747   0.4851   0.4882   0.4995
  0.5018   0.5085   0.5151   0.5227   0.5253   0.5330   0.5499   0.5549
  0.5613   0.5637   0.5774   0.5836   0.5886   0.5976   0.6044   0.6103
  0.6227   0.6293   0.6379   0.6447   0.6544   0.6625   0.6795   0.6848
  0.6886   0.6965   0.7043   0.7147   0.7211   0.7332   0.7407   0.7480
  0.7546   0.7620   0.7789   0.7867   0.7961   0.8045   0.8169   0.8301
  0.8327   0.8452   0.8540   0.8593   0.8702   0.8742   0.8963   0.9071
  0.9171   0.9270   0.9480   0.9526   0.9609   0.9745   0.9893   1.0023
  1.0134   1.0281   1.0310   1.0397   1.0505   1.0661   1.0752   1.0894
  1.0957   1.1162   1.1208   1.1297   1.1441   1.1639   1.1988   1.2069
  1.2279   1.2464   1.2541   1.2612   1.2810   1.2991   1.3138   1.3179
  1.3362   1.3473   1.3704   1.3835   1.3883   1.4055   1.4094   1.4356
  1.4519   1.4610   1.4955   1.5219   1.5536   1.5634   1.5828   1.6246
  1.6358   1.7317   1.7492   1.7547   1.7749   1.7963   1.8035   1.8255
  1.8833   1.8997   1.9237   1.9406   1.9612   1.9945   2.0098   2.0182
  2.0480   2.0663   2.0987   2.1248   2.1579   2.1725   2.1816   2.2137
  2.2459   2.2737   2.2918   2.3272   2.3668   2.3958   2.4620   2.4635
  2.4805   2.4995   2.5107   2.5522   2.5625   2.6487   2.6542   2.7361
  2.7437   2.8181   2.8536   2.8979   2.9710   2.9924   3.0020   3.0168
  3.0263   3.0413   3.0620   3.0681   3.1211   3.1308   3.1361   3.1782
  3.2260   3.2361   3.2691   3.2923   3.3113   3.3256   3.3497   3.3598
  3.3649   3.3725   3.3839   3.3897   3.3986   3.4095   3.4253   3.4297
  3.4414   3.4593   3.4840   3.5010   3.5280   3.5503   3.5595   3.5611
  3.5897   3.6041   3.6231   3.6457   3.6509   3.6658   3.6870   3.7035
  3.7620   3.7970   3.8279   3.8412   3.8662   3.8975   3.9206   3.9336
  3.9639   4.0484   4.0581   4.0752   4.0960   4.1170   4.1647   4.1685
  4.2091   4.2181   4.2285   4.2583   4.3125   4.3411   4.3858   4.4304
  4.4741   4.5178   4.5366   4.6034   4.6668   4.7259   4.7443   4.7809
  4.8071   4.8556   4.8670   4.9160   5.0004   5.0508   5.1172   5.1246
  5.1669   5.1824   5.2231   5.2427   5.2868   5.3109   5.3330   5.3579
  5.3870   5.4078   5.4202   5.5063   5.5327   5.5631   5.5890   5.5997
  5.6257   5.6621   5.6753   5.6855   5.7124   5.7894   5.7916   5.8585
  5.9109   5.9342   5.9430   6.0758   6.0818   6.0886   6.1639   6.1775
  6.2029   6.2384   6.2605   6.2711   6.2780   6.3046   6.3166   6.3682
  6.4722   6.5590   6.6210   6.6516   6.6838   6.7161   6.7219   6.7526
  6.8022   6.8108   6.8617   6.9015   6.9586   7.0019   7.1226   7.1421
  7.1665   7.1870   7.2794   7.4086   7.4432   7.4790   7.5019   7.6577
  7.7385  14.8263  15.2636  23.6154  23.6751  23.9028  44.2365  44.3421
 44.3861  44.6510
 --------------------------------------------------------------
 
          Ground-State Mulliken Net Atomic Charges

     Atom                 Charge (a.u.)    Spin (a.u.)
  --------------------------------------------------------
      1 C                    -0.045544      -0.008270
      2 C                     0.249793       0.004331
      3 O                    -0.259187      -0.000877
      4 C                     0.745203      -0.000989
      5 O                    -0.802139       0.000136
      6 O                    -0.802349       0.000158
      7 O                    -0.861775       0.011797
      8 Li                    0.870715       0.000090
      9 H                     0.025633       0.005777
     10 H                     0.027391      -0.001978
     11 H                     0.054714      -0.002365
     12 H                    -0.020152      -0.001541
     13 H                     0.010281       0.935297
     14 Li                    0.807415       0.058433
  --------------------------------------------------------
  Sum of atomic charges =    -0.000000
  Sum of spin   charges =     1.000000

  Building new vdw surfaces
         Merz-Kollman RESP Net Atomic Charges

     Atom                 Charge (a.u.)
  ----------------------------------------
      1 C                     0.399402
      2 C                     0.032175
      3 O                    -0.455095
      4 C                     0.811228
      5 O                    -0.763648
      6 O                    -0.763648
      7 O                    -1.066274
      8 Li                    0.844130
      9 H                    -0.022278
     10 H                    -0.022278
     11 H                     0.087259
     12 H                     0.087259
     13 H                    -0.005060
     14 Li                    0.836829
  ----------------------------------------
  Sum of atomic charges =     0.000000

  Related Dipole Moment =     6.5203 (X -3.4151 Y -4.1521 Z  3.6893)

 -----------------------------------------------------------------
                    Cartesian Multipole Moments
 -----------------------------------------------------------------
    Charge (ESU x 10^10)
                -0.0000
    Dipole Moment (Debye)
         X      -3.4226      Y      -4.3041      Z       3.8243
       Tot       6.6981
    Quadrupole Moments (Debye-Ang)
        XX      12.8688     XY      -5.1866     YY     -45.0160
        XZ       2.1862     YZ      -3.8515     ZZ     -42.8538
    Octopole Moments (Debye-Ang^2)
       XXX    -118.8852    XXY     -99.8540    XYY      -0.4290
       YYY       4.9845    XXZ      70.3545    XYZ      -1.6305
       YYZ     -22.3658    XZZ      16.5548    YZZ       0.5341
       ZZZ     -78.7169
    Hexadecapole Moments (Debye-Ang^3)
      XXXX     178.9527   XXXY      67.5379   XXYY    -130.0794
      XYYY     -56.3792   YYYY    -194.0438   XXXZ     -87.8183
      XXYZ    -114.3823   XYYZ     -20.8477   YYYZ       5.5162
      XXZZ    -124.3138   XYZZ     -25.9764   YYZZ     -69.1455
      XZZZ     -36.9485   YZZZ       9.2306   ZZZZ    -243.8477
 -----------------------------------------------------------------
 Calculating analytic gradient of the SCF energy
 Gradient of CDS energy
            1           2           3           4           5           6
    1   0.0001086  -0.0001421  -0.0009290   0.0003494  -0.0000626   0.0003979
    2  -0.0008929   0.0010672  -0.0001018   0.0003607  -0.0002197  -0.0002383
    3  -0.0012432   0.0007409  -0.0002888   0.0001062  -0.0001292   0.0001455
            7           8           9          10          11          12
    1  -0.0008690   0.0000284   0.0001287   0.0002436   0.0002417   0.0000918
    2   0.0001941  -0.0000150   0.0002924   0.0001403  -0.0003611  -0.0001516
    3   0.0005651   0.0000103   0.0003032   0.0002672  -0.0001979  -0.0001821
           13          14
    1   0.0000894   0.0003233
    2   0.0000464  -0.0001206
    3  -0.0000363  -0.0000608
 Gradient of SCF Energy
            1           2           3           4           5           6
    1   0.0015987  -0.0036376   0.0026156   0.0025116  -0.0046758  -0.0063384
    2  -0.0017352   0.0017034   0.0009792  -0.0035171   0.0034928   0.0035054
    3  -0.0054751   0.0056719  -0.0006513   0.0016683  -0.0030044  -0.0021531
            7           8           9          10          11          12
    1   0.0110153   0.0066800  -0.0034132   0.0008573  -0.0009307   0.0021805
    2   0.0012720  -0.0046753   0.0052184  -0.0029908   0.0018953  -0.0041020
    3  -0.0030774   0.0032814  -0.0005054   0.0060441  -0.0053330   0.0008238
           13          14
    1  -0.0001701  -0.0082932
    2   0.0005349  -0.0015810
    3  -0.0001044   0.0028145
 Max gradient component =       1.102E-02
 RMS gradient           =       3.914E-03
 Computing fast CPCM-SWIG gradient
 Updating gradient with PCM contributions...
 -- total gradient after adding PCM contribution --
---------------------------------------------------
  Atom         X              Y              Z     
---------------------------------------------------
   1      -0.000000       0.000002      -0.000006
   2       0.000002      -0.000001       0.000000
   3       0.000001      -0.000002       0.000002
   4      -0.000000      -0.000004       0.000002
   5      -0.000002      -0.000004       0.000000
   6       0.000001      -0.000005       0.000003
   7       0.000001       0.000008      -0.000004
   8      -0.000002      -0.000007       0.000003
   9       0.000002       0.000002       0.000003
  10       0.000001       0.000003      -0.000002
  11      -0.000000      -0.000000       0.000001
  12       0.000004       0.000001       0.000000
  13       0.000002       0.000005       0.000006
  14      -0.000010       0.000004      -0.000009
---------------------------------------------------
 Number of fixed atoms: 0
 Gradient time:  CPU 568.17 s  wall 25.50 s
 ######################################################
 ######################################################
 # Starting finite difference calculation for IDERIV  #
 Finite diff step size:  1.88973e-03 a.u.
 ----------------------------------------------------------------
             Standard Nuclear Orientation (Angstroms)
    I     Atom           X                Y                Z
 ----------------------------------------------------------------
    1      C      -1.4410923595    -0.5490305962    -0.1388241651
    2      C      -0.8377017028     0.4808589429     0.8124631109
    3      O       0.4828792820     0.8770973032     0.3937281721
    4      C       1.5277216412     0.1508962914     0.8237056071
    5      O       1.3696503425    -0.8003252885     1.6391180705
    6      O       2.6595070760     0.4858599422     0.3765178145
    7      O      -2.7121913049    -0.8915817696     0.2498428783
    8      Li      3.2546283440    -0.9377606300     1.4665951572
    9      H      -0.7628976723    -1.4225146009    -0.1627040939
   10      H      -1.4178060798    -0.1156767146    -1.1576999279
   11      H      -0.8043459288     0.0895702672     1.8305212206
   12      H      -1.4319721409     1.3980076506     0.7964617520
   13      H      -4.6029084738     1.0652143737     0.3002994282
   14      Li     -4.2622810228    -1.1254251714     0.7395649756
 ----------------------------------------------------------------
 Nuclear Repulsion Energy =         354.85099581 hartrees
 There are       31 alpha and       30 beta electrons
 Discretize the solute cavity surface with Lebedev spheres
	Using 110 Lebedev grid points for each H atom
	Using 194 Lebedev grid points for other atoms
	Atomic van der Waals radii will be scaled by 1.20
 Remove points where switching function is < 1.0e-08
 Keep 1035 surface tesserae and discard 1261 interior tesserae
 Molecular Surface Area = 208.667 Angst**2

                       Distance Matrix (Angstroms)
             C (  1)   C (  2)   O (  3)   C (  4)   O (  5)   O (  6)
   C (  2)  1.526336
   O (  3)  2.453389  1.440930
   C (  4)  3.198471  2.388353  1.343110
   O (  5)  3.335341  2.682759  2.269605  1.262817
   O (  6)  4.260457  3.524279  2.211577  1.262187  2.216340
   O (  7)  1.372624  2.390365  3.654778  4.403742  4.312754  5.546939
   Li(  8)  4.977778  4.380358  3.482434  2.140254  1.897839  1.889215
   H (  9)  1.106116  2.139948  2.673909  2.948824  2.860322  3.955440
   H ( 10)  1.107450  2.138672  2.646721  3.559939  4.007599  4.397744
   H ( 11)  2.166005  1.091174  2.083632  2.540862  2.356864  3.777492
   H ( 12)  2.160046  1.092966  2.024895  3.211824  3.659484  4.212905
   H ( 13)  3.577107  3.844550  5.090123  6.220495  6.398760  7.285886
   Li( 14)  3.010466  3.783280  5.162000  5.929604  5.712577  7.116122
             O (  7)   Li(  8)   H (  9)   H ( 10)   H ( 11)   H ( 12)
   Li(  8)  6.089791
   H (  9)  2.061997  4.362352
   H ( 10)  2.063647  5.421659  1.768261
   H ( 11)  2.664785  4.202752  2.502212  3.057438
   H ( 12)  2.679547  5.279121  3.053360  2.471880  1.781910
   H ( 13)  2.721472  8.192255  4.598788  3.696639  4.209814  3.226727
   Li( 14)  1.642342  7.554318  3.626022  3.565143  3.824097  3.792308
             H ( 13)
   Li( 14)  2.260063
 
 Requested basis set is def2-TZVPPD
 There are 150 shells and 400 basis functions
 A cutoff of  1.0D-14 yielded  10343 shell pairs
 There are     74503 function pairs (     93829 Cartesian)
 Smallest overlap matrix eigenvalue = 8.78E-06
 Guess MOs from SCF MO coefficient file

 -----------------------------------------------------------------------
  General SCF calculation program by
  Eric Jon Sundstrom, Paul Horn, Yuezhi Mao, Dmitri Zuev, Alec White,
  David Stuck, Shaama M.S., Shane Yost, Joonho Lee, David Small,
  Daniel Levine, Susi Lehtola, Hugh Burton, Evgeny Epifanovsky,
  Bang C. Huynh
 -----------------------------------------------------------------------
 Exchange:     0.1670 Hartree-Fock + 1.0000 wB97X-V + LR-HF
 Correlation:  1.0000 wB97X-V
 Using SG-3 standard quadrature grid
 Nonlocal Correlation:  VV10 with C = 0.0100 and b = 6.00 and scale = 1.00000
 Grid used for NLC:  SG-1 standard quadrature
 
 Citation of the SMD model:
 Marenich, A.V.; Cramer, C.J.; Truhlar, D.G.
 J. Phys. Chem. B 2009, 113, 6378-6396.
 iSolventCode=           0
 Solvent: other                                                           
 
 vradii
            1           2           3           4           5           6
    1   1.8500000   1.8500000   2.2940000   1.8500000   2.2940000   2.2940000
            7           8           9          10          11          12
    1   2.2940000   2.1476001   1.2000000   1.2000000   1.2000000   1.2000000
           13          14
    1   1.2000000   2.1476001
 using 40 threads for integral computing
 -------------------------------------------------------
 OpenMP Integral computing Module                
 Release: version 1.0, May 2013, Q-Chem Inc. Pittsburgh 
 -------------------------------------------------------
 using 40 threads for integral computing
 -------------------------------------------------------
 OpenMP Integral computing Module                
 Release: version 1.0, May 2013, Q-Chem Inc. Pittsburgh 
 -------------------------------------------------------
 -------------------------------------------------------
 OpenMP BLAS3 based DFT computing Module                
 Release: version 1.0, May 2013, Q-Chem Inc. Pittsburgh 
 -------------------------------------------------------
 -------------------------------------------------------
 OpenMP BLAS3 based DFT computing Module                
 Release: version 1.0, May 2013, Q-Chem Inc. Pittsburgh 
 -------------------------------------------------------
 -------------------------------------------------------
 OpenMP BLAS3 based DFT computing Module                
 Release: version 1.0, May 2013, Q-Chem Inc. Pittsburgh 
 -------------------------------------------------------
 A unrestricted SCF calculation will be
 performed using Roothaan-Hall, DIIS
 SCF converges when DIIS error is below 1.0e-08
 ---------------------------------------
  Cycle       Energy         DIIS error
 ---------------------------------------
    1    -432.0862406984      1.10e-04  Roothaan Step
 ---------------------------------------
  Cycle       Energy         DIIS error
 ---------------------------------------
    1    -433.3549516461      1.18e-04  
    2    -433.3564682807      7.90e-05  
    3    -433.3568323087      2.86e-05  
    4    -433.3568966651      1.06e-05  
    5    -433.3569125770      3.98e-06  
    6    -433.3569166300      1.97e-06  
    7    -433.3569181503      1.29e-06  
    8    -433.3569188042      6.66e-07  
    9    -433.3569192095      3.07e-07  
   10    -433.3569192694      1.45e-07  
   11    -433.3569192773      4.98e-08  
   12    -433.3569192778      1.54e-08  
   13    -433.3569192778      4.93e-09  Convergence criterion met
 ---------------------------------------
 SCF time:   CPU 2956.06s  wall 121.00s 
<S^2> =          0.752446972
(3)  G-ENP(liq) elect-nuc-pol free energy of system     -433.356919278 a.u.
(4)  G-CDS(liq) cavity-dispersion-solvent structure 
     free energy                                               -2.2621 kcal/mol
(6)  G-S(liq) free energy of system                     -433.360524099 a.u.
 SCF   energy in the final basis set =     -433.3569192778
 Total energy in the final basis set =     -433.3605240994
 
 --------------------------------------------------------------
 
                    Orbital Energies (a.u.)
 --------------------------------------------------------------
 
 Alpha MOs
 -- Occupied --
-19.2338 -19.1716 -19.1675 -19.1209 -10.4088 -10.2939 -10.2782  -2.0923
 -2.0800  -1.2328  -1.1342  -1.0861  -1.0503  -0.8441  -0.7214  -0.6568
 -0.5934  -0.5884  -0.5728  -0.5401  -0.5026  -0.4977  -0.4760  -0.4390
 -0.4252  -0.4150  -0.4004  -0.3774  -0.3689  -0.3178  -0.3144
 -- Virtual --
  0.0307   0.0321   0.0439   0.0467   0.0518   0.0528   0.0590   0.0718
  0.0979   0.1135   0.1175   0.1206   0.1321   0.1358   0.1374   0.1390
  0.1483   0.1499   0.1572   0.1603   0.1650   0.1715   0.1734   0.1771
  0.1832   0.2002   0.2072   0.2111   0.2198   0.2290   0.2337   0.2439
  0.2555   0.2640   0.2662   0.2705   0.2860   0.2983   0.3022   0.3101
  0.3194   0.3211   0.3308   0.3366   0.3414   0.3490   0.3542   0.3647
  0.3725   0.3755   0.3791   0.3839   0.3887   0.3974   0.4082   0.4139
  0.4181   0.4208   0.4258   0.4323   0.4367   0.4382   0.4450   0.4476
  0.4503   0.4672   0.4717   0.4743   0.4838   0.4872   0.4963   0.5004
  0.5076   0.5149   0.5200   0.5247   0.5295   0.5486   0.5544   0.5599
  0.5620   0.5763   0.5832   0.5836   0.5951   0.6031   0.6050   0.6217
  0.6283   0.6365   0.6438   0.6481   0.6621   0.6773   0.6825   0.6870
  0.6932   0.7041   0.7139   0.7191   0.7262   0.7387   0.7421   0.7484
  0.7538   0.7772   0.7847   0.7931   0.8040   0.8164   0.8289   0.8298
  0.8446   0.8528   0.8579   0.8689   0.8715   0.8956   0.9051   0.9164
  0.9260   0.9423   0.9500   0.9595   0.9705   0.9761   0.9918   1.0034
  1.0114   1.0272   1.0365   1.0382   1.0489   1.0676   1.0828   1.0906
  1.1154   1.1187   1.1241   1.1360   1.1555   1.1983   1.2049   1.2273
  1.2406   1.2535   1.2605   1.2804   1.2986   1.3128   1.3178   1.3360
  1.3458   1.3692   1.3823   1.3875   1.4053   1.4090   1.4353   1.4514
  1.4607   1.4948   1.5214   1.5511   1.5628   1.5823   1.6243   1.6349
  1.7310   1.7488   1.7545   1.7746   1.7964   1.8034   1.8246   1.8830
  1.8995   1.9231   1.9404   1.9609   1.9941   2.0091   2.0176   2.0472
  2.0653   2.0975   2.1213   2.1562   2.1716   2.1795   2.2134   2.2445
  2.2726   2.2915   2.3269   2.3662   2.3957   2.4576   2.4632   2.4797
  2.4985   2.5104   2.5477   2.5626   2.6147   2.6476   2.6608   2.7361
  2.7461   2.8190   2.8538   2.9084   2.9815   2.9950   3.0164   3.0261
  3.0401   3.0610   3.0656   3.1180   3.1280   3.1352   3.1748   3.2235
  3.2344   3.2655   3.2841   3.2965   3.3043   3.3087   3.3172   3.3292
  3.3510   3.3619   3.3653   3.3708   3.3759   3.3936   3.4143   3.4376
  3.4412   3.4482   3.4650   3.4989   3.5299   3.5560   3.5592   3.5886
  3.6036   3.6203   3.6453   3.6501   3.6653   3.6867   3.7008   3.7573
  3.7954   3.8266   3.8406   3.8560   3.8671   3.8964   3.9084   3.9260
  3.9404   3.9734   4.0060   4.0526   4.0750   4.0979   4.1639   4.1660
  4.2103   4.2253   4.2562   4.3118   4.3407   4.3858   4.4302   4.4734
  4.5176   4.5362   4.6034   4.6667   4.7258   4.7447   4.7810   4.8070
  4.8559   4.8668   4.9157   5.0003   5.0508   5.1170   5.1246   5.1662
  5.1819   5.2230   5.2426   5.2868   5.3109   5.3330   5.3561   5.3859
  5.4075   5.4188   5.5063   5.5322   5.5631   5.5891   5.5992   5.6256
  5.6620   5.6752   5.6852   5.7123   5.7881   5.7915   5.8575   5.9098
  5.9339   5.9429   6.0756   6.0806   6.0885   6.1629   6.1767   6.2025
  6.2379   6.2602   6.2705   6.2763   6.3034   6.3166   6.3680   6.4722
  6.5590   6.6208   6.6497   6.6837   6.7160   6.7219   6.7478   6.7996
  6.8083   6.8616   6.9015   6.9586   7.0018   7.1213   7.1374   7.1662
  7.1860   7.2794   7.4085   7.4431   7.4776   7.5015   7.6577   7.7385
 14.8263  15.2634  23.6155  23.6744  23.9028  44.2364  44.3399  44.3860
 44.6509
 
 Beta MOs
 -- Occupied --
-19.2338 -19.1716 -19.1675 -19.1194 -10.4088 -10.2939 -10.2782  -2.0923
 -2.0799  -1.2328  -1.1342  -1.0861  -1.0473  -0.8437  -0.7207  -0.6568
 -0.5933  -0.5883  -0.5726  -0.5393  -0.5004  -0.4973  -0.4751  -0.4365
 -0.4149  -0.4005  -0.3773  -0.3689  -0.3164  -0.3132
 -- Virtual --
 -0.0136   0.0308   0.0369   0.0447   0.0482   0.0530   0.0533   0.0648
  0.0858   0.0997   0.1139   0.1210   0.1221   0.1329   0.1363   0.1377
  0.1394   0.1499   0.1512   0.1602   0.1618   0.1668   0.1725   0.1772
  0.1786   0.1843   0.2049   0.2096   0.2126   0.2239   0.2332   0.2351
  0.2452   0.2611   0.2671   0.2714   0.2883   0.2946   0.2999   0.3077
  0.3127   0.3200   0.3222   0.3353   0.3404   0.3419   0.3505   0.3579
  0.3665   0.3752   0.3768   0.3798   0.3854   0.3906   0.3994   0.4092
  0.4150   0.4205   0.4218   0.4305   0.4339   0.4379   0.4413   0.4474
  0.4493   0.4612   0.4687   0.4722   0.4747   0.4850   0.4882   0.4995
  0.5018   0.5085   0.5151   0.5227   0.5253   0.5330   0.5499   0.5549
  0.5612   0.5636   0.5774   0.5835   0.5886   0.5976   0.6044   0.6102
  0.6226   0.6293   0.6379   0.6448   0.6543   0.6624   0.6795   0.6848
  0.6886   0.6965   0.7043   0.7148   0.7211   0.7333   0.7407   0.7480
  0.7546   0.7620   0.7789   0.7867   0.7962   0.8045   0.8169   0.8300
  0.8328   0.8452   0.8540   0.8594   0.8703   0.8741   0.8963   0.9071
  0.9171   0.9270   0.9480   0.9527   0.9610   0.9745   0.9893   1.0023
  1.0133   1.0282   1.0310   1.0397   1.0505   1.0661   1.0752   1.0894
  1.0957   1.1162   1.1208   1.1297   1.1441   1.1639   1.1988   1.2069
  1.2280   1.2464   1.2541   1.2612   1.2810   1.2990   1.3139   1.3179
  1.3362   1.3473   1.3704   1.3835   1.3883   1.4055   1.4093   1.4355
  1.4519   1.4610   1.4956   1.5218   1.5538   1.5634   1.5829   1.6247
  1.6358   1.7317   1.7493   1.7547   1.7750   1.7966   1.8036   1.8255
  1.8833   1.8997   1.9236   1.9406   1.9612   1.9945   2.0097   2.0182
  2.0479   2.0662   2.0986   2.1247   2.1578   2.1725   2.1814   2.2137
  2.2457   2.2737   2.2917   2.3272   2.3668   2.3958   2.4621   2.4636
  2.4806   2.4995   2.5106   2.5522   2.5627   2.6482   2.6546   2.7361
  2.7437   2.8179   2.8537   2.8980   2.9710   2.9924   3.0018   3.0169
  3.0265   3.0413   3.0619   3.0681   3.1206   3.1306   3.1361   3.1781
  3.2260   3.2360   3.2691   3.2924   3.3114   3.3257   3.3497   3.3598
  3.3649   3.3726   3.3839   3.3897   3.3987   3.4095   3.4253   3.4297
  3.4415   3.4593   3.4841   3.5010   3.5281   3.5503   3.5596   3.5610
  3.5898   3.6040   3.6230   3.6457   3.6509   3.6657   3.6869   3.7036
  3.7621   3.7972   3.8281   3.8411   3.8663   3.8975   3.9210   3.9339
  3.9642   4.0488   4.0582   4.0752   4.0963   4.1169   4.1648   4.1681
  4.2091   4.2181   4.2285   4.2583   4.3127   4.3411   4.3861   4.4304
  4.4739   4.5178   4.5365   4.6038   4.6668   4.7263   4.7448   4.7812
  4.8074   4.8562   4.8670   4.9160   5.0006   5.0511   5.1174   5.1252
  5.1668   5.1823   5.2234   5.2431   5.2868   5.3109   5.3330   5.3583
  5.3871   5.4078   5.4203   5.5064   5.5330   5.5633   5.5894   5.5997
  5.6258   5.6625   5.6754   5.6855   5.7124   5.7891   5.7918   5.8585
  5.9104   5.9341   5.9430   6.0758   6.0811   6.0885   6.1633   6.1772
  6.2027   6.2384   6.2603   6.2707   6.2772   6.3040   6.3166   6.3681
  6.4722   6.5590   6.6209   6.6511   6.6838   6.7161   6.7219   6.7525
  6.8022   6.8107   6.8616   6.9015   6.9586   7.0018   7.1223   7.1417
  7.1665   7.1869   7.2794   7.4086   7.4433   7.4794   7.5020   7.6577
  7.7385  14.8263  15.2635  23.6155  23.6744  23.9028  44.2365  44.3415
 44.3861  44.6510
 --------------------------------------------------------------
 
          Ground-State Mulliken Net Atomic Charges

     Atom                 Charge (a.u.)    Spin (a.u.)
  --------------------------------------------------------
      1 C                    -0.046362      -0.008300
      2 C                     0.250316       0.004343
      3 O                    -0.259172      -0.000877
      4 C                     0.745214      -0.000987
      5 O                    -0.802160       0.000135
      6 O                    -0.802354       0.000158
      7 O                    -0.861526       0.011850
      8 Li                    0.870716       0.000090
      9 H                     0.026072       0.005774
     10 H                     0.027348      -0.001965
     11 H                     0.054625      -0.002360
     12 H                    -0.020336      -0.001557
     13 H                     0.010238       0.935258
     14 Li                    0.807382       0.058439
  --------------------------------------------------------
  Sum of atomic charges =    -0.000000
  Sum of spin   charges =     1.000000

  Building new vdw surfaces
         Merz-Kollman RESP Net Atomic Charges

     Atom                 Charge (a.u.)
  ----------------------------------------
      1 C                     0.397762
      2 C                     0.032173
      3 O                    -0.455175
      4 C                     0.811220
      5 O                    -0.763623
      6 O                    -0.763623
      7 O                    -1.066227
      8 Li                    0.844125
      9 H                    -0.021588
     10 H                    -0.021588
     11 H                     0.087457
     12 H                     0.087457
     13 H                    -0.005086
     14 Li                    0.836716
  ----------------------------------------
  Sum of atomic charges =     0.000000

  Related Dipole Moment =     6.5160 (X -3.4087 Y -4.1516 Z  3.6882)

 -----------------------------------------------------------------
                    Cartesian Multipole Moments
 -----------------------------------------------------------------
    Charge (ESU x 10^10)
                -0.0000
    Dipole Moment (Debye)
         X      -3.4163      Y      -4.3035      Z       3.8232
       Tot       6.6939
    Quadrupole Moments (Debye-Ang)
        XX      12.8433     XY      -5.1933     YY     -45.0143
        XZ       2.1892     YZ      -3.8491     ZZ     -42.8521
    Octopole Moments (Debye-Ang^2)
       XXX    -118.8011    XXY     -99.8351    XYY      -0.4216
       YYY       4.9862    XXZ      70.3469    XYZ      -1.6340
       YYZ     -22.3677    XZZ      16.5544    YZZ       0.5376
       ZZZ     -78.7196
    Hexadecapole Moments (Debye-Ang^3)
      XXXX     178.6542   XXXY      67.4942   XXYY    -130.1172
      XYYY     -56.4002   YYYY    -194.0369   XXXZ     -87.7907
      XXYZ    -114.3761   XYYZ     -20.8428   YYYZ       5.5274
      XXZZ    -124.3221   XYZZ     -25.9852   YYZZ     -69.1442
      XZZZ     -36.9346   YZZZ       9.2382   ZZZZ    -243.8366
 -----------------------------------------------------------------
 Calculating analytic gradient of the SCF energy
 Gradient of CDS energy
            1           2           3           4           5           6
    1   0.0001140  -0.0001424  -0.0009290   0.0003495  -0.0000626   0.0003979
    2  -0.0008920   0.0010670  -0.0001020   0.0003608  -0.0002197  -0.0002383
    3  -0.0012435   0.0007403  -0.0002888   0.0001065  -0.0001293   0.0001455
            7           8           9          10          11          12
    1  -0.0008731   0.0000284   0.0001286   0.0002434   0.0002417   0.0000918
    2   0.0001925  -0.0000150   0.0002931   0.0001403  -0.0003611  -0.0001515
    3   0.0005656   0.0000103   0.0003032   0.0002671  -0.0001979  -0.0001820
           13          14
    1   0.0000892   0.0003227
    2   0.0000464  -0.0001205
    3  -0.0000362  -0.0000607
 Gradient of SCF Energy
            1           2           3           4           5           6
    1   0.0025439  -0.0037597   0.0025654   0.0025085  -0.0046719  -0.0063359
    2  -0.0018006   0.0016747   0.0009396  -0.0035293   0.0034949   0.0035095
    3  -0.0054971   0.0056214  -0.0006786   0.0016656  -0.0029995  -0.0021518
            7           8           9          10          11          12
    1   0.0105279   0.0066777  -0.0036130   0.0007785  -0.0009296   0.0021891
    2   0.0011787  -0.0046756   0.0054063  -0.0029672   0.0018888  -0.0040740
    3  -0.0029595   0.0032803  -0.0005143   0.0060050  -0.0053298   0.0008422
           13          14
    1  -0.0001731  -0.0083077
    2   0.0005373  -0.0015830
    3  -0.0001041   0.0028202
 Max gradient component =       1.053E-02
 RMS gradient           =       3.901E-03
 Computing fast CPCM-SWIG gradient
 Updating gradient with PCM contributions...
 -- total gradient after adding PCM contribution --
---------------------------------------------------
  Atom         X              Y              Z     
---------------------------------------------------
   1       0.000976      -0.000066      -0.000033
   2      -0.000125      -0.000023      -0.000044
   3      -0.000053      -0.000045      -0.000026
   4      -0.000002      -0.000016       0.000001
   5       0.000002      -0.000001       0.000001
   6       0.000001      -0.000003       0.000004
   7      -0.000485      -0.000083       0.000109
   8      -0.000003      -0.000007       0.000003
   9      -0.000211       0.000193      -0.000005
  10      -0.000089       0.000020      -0.000033
  11       0.000001      -0.000005      -0.000001
  12       0.000015       0.000027       0.000021
  13      -0.000001       0.000007       0.000006
  14      -0.000026       0.000000      -0.000004
---------------------------------------------------
 Number of fixed atoms: 0
 Gradient time:  CPU 567.25 s  wall 25.75 s
 ----------------------------------------------------------------
             Standard Nuclear Orientation (Angstroms)
    I     Atom           X                Y                Z
 ----------------------------------------------------------------
    1      C      -1.4430923595    -0.5490305962    -0.1388241651
    2      C      -0.8377017028     0.4808589429     0.8124631109
    3      O       0.4828792820     0.8770973032     0.3937281721
    4      C       1.5277216412     0.1508962914     0.8237056071
    5      O       1.3696503425    -0.8003252885     1.6391180705
    6      O       2.6595070760     0.4858599422     0.3765178145
    7      O      -2.7121913049    -0.8915817696     0.2498428783
    8      Li      3.2546283440    -0.9377606300     1.4665951572
    9      H      -0.7628976723    -1.4225146009    -0.1627040939
   10      H      -1.4178060798    -0.1156767146    -1.1576999279
   11      H      -0.8043459288     0.0895702672     1.8305212206
   12      H      -1.4319721409     1.3980076506     0.7964617520
   13      H      -4.6029084738     1.0652143737     0.3002994282
   14      Li     -4.2622810228    -1.1254251714     0.7395649756
 ----------------------------------------------------------------
 Nuclear Repulsion Energy =         354.85089935 hartrees
 There are       31 alpha and       30 beta electrons
 Discretize the solute cavity surface with Lebedev spheres
	Using 110 Lebedev grid points for each H atom
	Using 194 Lebedev grid points for other atoms
	Atomic van der Waals radii will be scaled by 1.20
 Remove points where switching function is < 1.0e-08
 Keep 1035 surface tesserae and discard 1261 interior tesserae
 Molecular Surface Area = 208.667 Angst**2

                       Distance Matrix (Angstroms)
             C (  1)   C (  2)   O (  3)   C (  4)   O (  5)   O (  6)
   C (  2)  1.527127
   O (  3)  2.454958  1.440930
   C (  4)  3.200328  2.388353  1.343110
   O (  5)  3.337027  2.682759  2.269605  1.262817
   O (  6)  4.262382  3.524279  2.211577  1.262187  2.216340
   O (  7)  1.370772  2.390365  3.654778  4.403742  4.312754  5.546939
   Li(  8)  4.979665  4.380358  3.482434  2.140254  1.897839  1.889215
   H (  9)  1.107343  2.139948  2.673909  2.948824  2.860322  3.955440
   H ( 10)  1.107494  2.138672  2.646721  3.559939  4.007599  4.397744
   H ( 11)  2.166594  1.091174  2.083632  2.540862  2.356864  3.777492
   H ( 12)  2.160056  1.092966  2.024895  3.211824  3.659484  4.212905
   H ( 13)  3.575340  3.844550  5.090123  6.220495  6.398760  7.285886
   Li( 14)  3.008592  3.783280  5.162000  5.929604  5.712577  7.116122
             O (  7)   Li(  8)   H (  9)   H ( 10)   H ( 11)   H ( 12)
   Li(  8)  6.089791
   H (  9)  2.061997  4.362352
   H ( 10)  2.063647  5.421659  1.768261
   H ( 11)  2.664785  4.202752  2.502212  3.057438
   H ( 12)  2.679547  5.279121  3.053360  2.471880  1.781910
   H ( 13)  2.721472  8.192255  4.598788  3.696639  4.209814  3.226727
   Li( 14)  1.642342  7.554318  3.626022  3.565143  3.824097  3.792308
             H ( 13)
   Li( 14)  2.260063
 
 Requested basis set is def2-TZVPPD
 There are 150 shells and 400 basis functions
 A cutoff of  1.0D-14 yielded  10343 shell pairs
 There are     74503 function pairs (     93829 Cartesian)
 Smallest overlap matrix eigenvalue = 8.80E-06
 Guess MOs from SCF MO coefficient file

 -----------------------------------------------------------------------
  General SCF calculation program by
  Eric Jon Sundstrom, Paul Horn, Yuezhi Mao, Dmitri Zuev, Alec White,
  David Stuck, Shaama M.S., Shane Yost, Joonho Lee, David Small,
  Daniel Levine, Susi Lehtola, Hugh Burton, Evgeny Epifanovsky,
  Bang C. Huynh
 -----------------------------------------------------------------------
 Exchange:     0.1670 Hartree-Fock + 1.0000 wB97X-V + LR-HF
 Correlation:  1.0000 wB97X-V
 Using SG-3 standard quadrature grid
 Nonlocal Correlation:  VV10 with C = 0.0100 and b = 6.00 and scale = 1.00000
 Grid used for NLC:  SG-1 standard quadrature
 
 Citation of the SMD model:
 Marenich, A.V.; Cramer, C.J.; Truhlar, D.G.
 J. Phys. Chem. B 2009, 113, 6378-6396.
 iSolventCode=           0
 Solvent: other                                                           
 
 vradii
            1           2           3           4           5           6
    1   1.8500000   1.8500000   2.2940000   1.8500000   2.2940000   2.2940000
            7           8           9          10          11          12
    1   2.2940000   2.1476001   1.2000000   1.2000000   1.2000000   1.2000000
           13          14
    1   1.2000000   2.1476001
 using 40 threads for integral computing
 -------------------------------------------------------
 OpenMP Integral computing Module                
 Release: version 1.0, May 2013, Q-Chem Inc. Pittsburgh 
 -------------------------------------------------------
 using 40 threads for integral computing
 -------------------------------------------------------
 OpenMP Integral computing Module                
 Release: version 1.0, May 2013, Q-Chem Inc. Pittsburgh 
 -------------------------------------------------------
 -------------------------------------------------------
 OpenMP BLAS3 based DFT computing Module                
 Release: version 1.0, May 2013, Q-Chem Inc. Pittsburgh 
 -------------------------------------------------------
 -------------------------------------------------------
 OpenMP BLAS3 based DFT computing Module                
 Release: version 1.0, May 2013, Q-Chem Inc. Pittsburgh 
 -------------------------------------------------------
 -------------------------------------------------------
 OpenMP BLAS3 based DFT computing Module                
 Release: version 1.0, May 2013, Q-Chem Inc. Pittsburgh 
 -------------------------------------------------------
 A unrestricted SCF calculation will be
 performed using Roothaan-Hall, DIIS
 SCF converges when DIIS error is below 1.0e-08
 ---------------------------------------
  Cycle       Energy         DIIS error
 ---------------------------------------
    1    -432.0870222402      1.10e-04  Roothaan Step
 ---------------------------------------
  Cycle       Energy         DIIS error
 ---------------------------------------
    1    -433.3549489609      1.17e-04  
    2    -433.3564690182      7.86e-05  
    3    -433.3568311061      2.87e-05  
    4    -433.3568959315      1.06e-05  
    5    -433.3569120249      4.03e-06  
    6    -433.3569161645      1.97e-06  
    7    -433.3569177199      1.30e-06  
    8    -433.3569183870      6.70e-07  
    9    -433.3569187973      3.07e-07  
   10    -433.3569188571      1.45e-07  
   11    -433.3569188650      5.02e-08  
   12    -433.3569188654      1.58e-08  
   13    -433.3569188654      5.68e-09  Convergence criterion met
 ---------------------------------------
 SCF time:   CPU 2958.12s  wall 120.00s 
<S^2> =          0.752439521
(3)  G-ENP(liq) elect-nuc-pol free energy of system     -433.356918865 a.u.
(4)  G-CDS(liq) cavity-dispersion-solvent structure 
     free energy                                               -2.2623 kcal/mol
(6)  G-S(liq) free energy of system                     -433.360524097 a.u.
 SCF   energy in the final basis set =     -433.3569188654
 Total energy in the final basis set =     -433.3605240973
 
 --------------------------------------------------------------
 
                    Orbital Energies (a.u.)
 --------------------------------------------------------------
 
 Alpha MOs
 -- Occupied --
-19.2338 -19.1716 -19.1675 -19.1209 -10.4088 -10.2939 -10.2783  -2.0923
 -2.0801  -1.2327  -1.1342  -1.0861  -1.0510  -0.8440  -0.7213  -0.6568
 -0.5934  -0.5884  -0.5728  -0.5400  -0.5028  -0.4977  -0.4761  -0.4391
 -0.4252  -0.4150  -0.4005  -0.3774  -0.3689  -0.3178  -0.3144
 -- Virtual --
  0.0307   0.0321   0.0439   0.0467   0.0518   0.0528   0.0590   0.0718
  0.0979   0.1135   0.1174   0.1206   0.1321   0.1358   0.1374   0.1390
  0.1483   0.1499   0.1572   0.1603   0.1650   0.1715   0.1734   0.1771
  0.1832   0.2002   0.2072   0.2111   0.2198   0.2290   0.2338   0.2439
  0.2555   0.2640   0.2662   0.2705   0.2860   0.2983   0.3022   0.3101
  0.3194   0.3212   0.3308   0.3366   0.3414   0.3490   0.3542   0.3647
  0.3725   0.3755   0.3791   0.3839   0.3886   0.3975   0.4082   0.4138
  0.4181   0.4208   0.4258   0.4322   0.4366   0.4383   0.4451   0.4476
  0.4503   0.4672   0.4717   0.4743   0.4838   0.4872   0.4963   0.5004
  0.5076   0.5149   0.5200   0.5247   0.5295   0.5486   0.5544   0.5599
  0.5622   0.5762   0.5832   0.5837   0.5951   0.6032   0.6051   0.6217
  0.6283   0.6365   0.6438   0.6480   0.6622   0.6773   0.6825   0.6870
  0.6932   0.7041   0.7138   0.7191   0.7262   0.7387   0.7419   0.7484
  0.7538   0.7772   0.7848   0.7931   0.8040   0.8165   0.8288   0.8299
  0.8446   0.8528   0.8578   0.8688   0.8716   0.8956   0.9051   0.9164
  0.9259   0.9422   0.9499   0.9595   0.9706   0.9761   0.9917   1.0035
  1.0114   1.0272   1.0365   1.0381   1.0489   1.0675   1.0828   1.0907
  1.1153   1.1187   1.1241   1.1360   1.1555   1.1983   1.2049   1.2273
  1.2406   1.2535   1.2604   1.2804   1.2987   1.3127   1.3178   1.3360
  1.3458   1.3693   1.3823   1.3876   1.4052   1.4092   1.4355   1.4514
  1.4608   1.4947   1.5214   1.5507   1.5629   1.5823   1.6241   1.6349
  1.7310   1.7485   1.7546   1.7744   1.7959   1.8032   1.8245   1.8831
  1.8996   1.9231   1.9404   1.9609   1.9941   2.0092   2.0177   2.0474
  2.0654   2.0976   2.1216   2.1563   2.1716   2.1798   2.2134   2.2450
  2.2726   2.2917   2.3270   2.3663   2.3958   2.4577   2.4631   2.4796
  2.4984   2.5104   2.5476   2.5622   2.6147   2.6483   2.6605   2.7361
  2.7460   2.8194   2.8536   2.9081   2.9814   2.9955   3.0161   3.0257
  3.0400   3.0614   3.0657   3.1189   3.1284   3.1352   3.1749   3.2234
  3.2346   3.2655   3.2839   3.2965   3.3044   3.3085   3.3174   3.3287
  3.3510   3.3619   3.3651   3.3707   3.3759   3.3935   3.4143   3.4377
  3.4412   3.4481   3.4648   3.4989   3.5298   3.5560   3.5595   3.5885
  3.6038   3.6206   3.6453   3.6501   3.6653   3.6868   3.7007   3.7571
  3.7952   3.8262   3.8409   3.8559   3.8671   3.8965   3.9079   3.9254
  3.9399   3.9731   4.0059   4.0519   4.0750   4.0971   4.1638   4.1669
  4.2103   4.2253   4.2561   4.3115   4.3406   4.3853   4.4303   4.4737
  4.5175   4.5364   4.6026   4.6666   4.7250   4.7437   4.7803   4.8065
  4.8546   4.8667   4.9156   4.9999   5.0502   5.1166   5.1236   5.1663
  5.1820   5.2223   5.2419   5.2868   5.3108   5.3329   5.3554   5.3857
  5.4075   5.4187   5.5061   5.5316   5.5626   5.5884   5.5992   5.6254
  5.6612   5.6752   5.6852   5.7121   5.7885   5.7912   5.8576   5.9108
  5.9342   5.9430   6.0758   6.0819   6.0886   6.1642   6.1773   6.2029
  6.2380   6.2606   6.2712   6.2780   6.3045   6.3166   6.3681   6.4722
  6.5590   6.6209   6.6506   6.6837   6.7160   6.7219   6.7481   6.7999
  6.8083   6.8616   6.9014   6.9586   7.0019   7.1220   7.1381   7.1661
  7.1861   7.2794   7.4084   7.4431   7.4766   7.5013   7.6577   7.7384
 14.8263  15.2635  23.6153  23.6758  23.9028  44.2364  44.3411  44.3860
 44.6510
 
 Beta MOs
 -- Occupied --
-19.2338 -19.1716 -19.1675 -19.1195 -10.4088 -10.2939 -10.2783  -2.0923
 -2.0800  -1.2327  -1.1342  -1.0861  -1.0480  -0.8436  -0.7206  -0.6567
 -0.5933  -0.5883  -0.5726  -0.5392  -0.5006  -0.4974  -0.4752  -0.4366
 -0.4149  -0.4006  -0.3773  -0.3689  -0.3164  -0.3131
 -- Virtual --
 -0.0135   0.0308   0.0369   0.0447   0.0482   0.0530   0.0533   0.0648
  0.0858   0.0997   0.1139   0.1210   0.1221   0.1329   0.1363   0.1377
  0.1394   0.1499   0.1512   0.1601   0.1618   0.1668   0.1725   0.1772
  0.1786   0.1843   0.2049   0.2096   0.2126   0.2239   0.2332   0.2351
  0.2452   0.2611   0.2671   0.2714   0.2883   0.2946   0.2999   0.3077
  0.3127   0.3200   0.3223   0.3352   0.3404   0.3419   0.3505   0.3580
  0.3665   0.3752   0.3768   0.3799   0.3854   0.3906   0.3995   0.4092
  0.4149   0.4205   0.4218   0.4305   0.4339   0.4379   0.4413   0.4474
  0.4493   0.4612   0.4687   0.4722   0.4747   0.4851   0.4882   0.4995
  0.5018   0.5085   0.5151   0.5227   0.5253   0.5330   0.5499   0.5549
  0.5613   0.5637   0.5774   0.5836   0.5886   0.5976   0.6044   0.6103
  0.6227   0.6293   0.6379   0.6447   0.6544   0.6626   0.6794   0.6848
  0.6886   0.6965   0.7043   0.7147   0.7211   0.7332   0.7407   0.7480
  0.7547   0.7620   0.7789   0.7867   0.7961   0.8045   0.8169   0.8301
  0.8327   0.8453   0.8540   0.8593   0.8702   0.8742   0.8963   0.9071
  0.9171   0.9270   0.9480   0.9526   0.9609   0.9745   0.9893   1.0024
  1.0134   1.0281   1.0310   1.0397   1.0505   1.0661   1.0752   1.0895
  1.0958   1.1161   1.1208   1.1298   1.1441   1.1639   1.1987   1.2069
  1.2279   1.2464   1.2541   1.2611   1.2810   1.2991   1.3138   1.3179
  1.3362   1.3473   1.3705   1.3835   1.3884   1.4054   1.4095   1.4357
  1.4519   1.4610   1.4955   1.5219   1.5534   1.5634   1.5828   1.6245
  1.6357   1.7316   1.7490   1.7548   1.7748   1.7961   1.8035   1.8255
  1.8833   1.8998   1.9237   1.9406   1.9612   1.9945   2.0099   2.0183
  2.0480   2.0664   2.0987   2.1250   2.1580   2.1725   2.1817   2.2137
  2.2462   2.2737   2.2919   2.3273   2.3668   2.3958   2.4620   2.4635
  2.4805   2.4995   2.5107   2.5521   2.5623   2.6491   2.6540   2.7361
  2.7436   2.8183   2.8536   2.8978   2.9710   2.9925   3.0022   3.0166
  3.0261   3.0413   3.0622   3.0681   3.1215   3.1310   3.1361   3.1783
  3.2259   3.2362   3.2691   3.2921   3.3111   3.3256   3.3497   3.3598
  3.3649   3.3724   3.3840   3.3896   3.3986   3.4095   3.4252   3.4297
  3.4414   3.4593   3.4839   3.5010   3.5280   3.5503   3.5595   3.5613
  3.5897   3.6041   3.6232   3.6457   3.6509   3.6658   3.6871   3.7035
  3.7619   3.7969   3.8277   3.8413   3.8662   3.8975   3.9202   3.9333
  3.9637   4.0481   4.0581   4.0753   4.0957   4.1170   4.1647   4.1689
  4.2091   4.2181   4.2285   4.2583   4.3124   4.3411   4.3855   4.4305
  4.4743   4.5178   4.5366   4.6030   4.6668   4.7255   4.7438   4.7805
  4.8069   4.8549   4.8670   4.9159   5.0003   5.0505   5.1169   5.1241
  5.1670   5.1824   5.2227   5.2424   5.2868   5.3109   5.3329   5.3576
  5.3869   5.4078   5.4201   5.5062   5.5324   5.5629   5.5887   5.5997
  5.6256   5.6617   5.6753   5.6855   5.7123   5.7896   5.7915   5.8586
  5.9115   5.9344   5.9431   6.0759   6.0825   6.0886   6.1645   6.1779
  6.2031   6.2384   6.2607   6.2715   6.2789   6.3052   6.3166   6.3682
  6.4722   6.5590   6.6210   6.6520   6.6838   6.7162   6.7219   6.7528
  6.8023   6.8109   6.8617   6.9015   6.9586   7.0019   7.1229   7.1425
  7.1665   7.1871   7.2794   7.4085   7.4432   7.4785   7.5018   7.6577
  7.7385  14.8263  15.2636  23.6153  23.6758  23.9028  44.2365  44.3427
 44.3861  44.6510
 --------------------------------------------------------------
 
          Ground-State Mulliken Net Atomic Charges

     Atom                 Charge (a.u.)    Spin (a.u.)
  --------------------------------------------------------
      1 C                    -0.044726      -0.008239
      2 C                     0.249269       0.004319
      3 O                    -0.259199      -0.000877
      4 C                     0.745192      -0.000991
      5 O                    -0.802117       0.000138
      6 O                    -0.802345       0.000158
      7 O                    -0.862024       0.011744
      8 Li                    0.870714       0.000091
      9 H                     0.025194       0.005779
     10 H                     0.027433      -0.001991
     11 H                     0.054802      -0.002370
     12 H                    -0.019966      -0.001526
     13 H                     0.010325       0.935337
     14 Li                    0.807448       0.058427
  --------------------------------------------------------
  Sum of atomic charges =     0.000000
  Sum of spin   charges =     1.000000

  Building new vdw surfaces
         Merz-Kollman RESP Net Atomic Charges

     Atom                 Charge (a.u.)
  ----------------------------------------
      1 C                     0.398751
      2 C                     0.032245
      3 O                    -0.455021
      4 C                     0.811198
      5 O                    -0.763617
      6 O                    -0.763617
      7 O                    -1.065489
      8 Li                    0.844084
      9 H                    -0.022313
     10 H                    -0.022313
     11 H                     0.087174
     12 H                     0.087174
     13 H                    -0.005031
     14 Li                    0.836776
  ----------------------------------------
  Sum of atomic charges =     0.000000

  Related Dipole Moment =     6.5246 (X -3.4215 Y -4.1531 Z  3.6900)

 -----------------------------------------------------------------
                    Cartesian Multipole Moments
 -----------------------------------------------------------------
    Charge (ESU x 10^10)
                 0.0000
    Dipole Moment (Debye)
         X      -3.4289      Y      -4.3046      Z       3.8254
       Tot       6.7023
    Quadrupole Moments (Debye-Ang)
        XX      12.8944     XY      -5.1798     YY     -45.0178
        XZ       2.1833     YZ      -3.8540     ZZ     -42.8555
    Octopole Moments (Debye-Ang^2)
       XXX    -118.9698    XXY     -99.8732    XYY      -0.4364
       YYY       4.9828    XXZ      70.3621    XYZ      -1.6269
       YYZ     -22.3639    XZZ      16.5552    YZZ       0.5306
       ZZZ     -78.7142
    Hexadecapole Moments (Debye-Ang^3)
      XXXX     179.2540   XXXY      67.5829   XXYY    -130.0420
      XYYY     -56.3579   YYYY    -194.0509   XXXZ     -87.8462
      XXYZ    -114.3885   XYYZ     -20.8527   YYYZ       5.5049
      XXZZ    -124.3055   XYZZ     -25.9676   YYZZ     -69.1470
      XZZZ     -36.9625   YZZZ       9.2230   ZZZZ    -243.8590
 -----------------------------------------------------------------
 Calculating analytic gradient of the SCF energy
 Gradient of CDS energy
            1           2           3           4           5           6
    1   0.0001030  -0.0001419  -0.0009291   0.0003493  -0.0000627   0.0003979
    2  -0.0008939   0.0010674  -0.0001017   0.0003605  -0.0002197  -0.0002383
    3  -0.0012429   0.0007415  -0.0002888   0.0001059  -0.0001292   0.0001455
            7           8           9          10          11          12
    1  -0.0008646   0.0000284   0.0001289   0.0002438   0.0002416   0.0000919
    2   0.0001958  -0.0000150   0.0002917   0.0001403  -0.0003611  -0.0001516
    3   0.0005644   0.0000103   0.0003033   0.0002674  -0.0001979  -0.0001821
           13          14
    1   0.0000896   0.0003240
    2   0.0000464  -0.0001207
    3  -0.0000363  -0.0000610
 Gradient of SCF Energy
            1           2           3           4           5           6
    1   0.0006508  -0.0035158   0.0026656   0.0025150  -0.0046797  -0.0063411
    2  -0.0016720   0.0017321   0.0010187  -0.0035050   0.0034908   0.0035014
    3  -0.0054515   0.0057223  -0.0006240   0.0016709  -0.0030093  -0.0021543
            7           8           9          10          11          12
    1   0.0115060   0.0066824  -0.0032140   0.0009363  -0.0009317   0.0021719
    2   0.0013663  -0.0046750   0.0050317  -0.0030143   0.0019019  -0.0041300
    3  -0.0031964   0.0032826  -0.0004965   0.0060829  -0.0053362   0.0008054
           13          14
    1  -0.0001672  -0.0082786
    2   0.0005323  -0.0015789
    3  -0.0001046   0.0028087
 Max gradient component =       1.151E-02
 RMS gradient           =       3.935E-03
 Computing fast CPCM-SWIG gradient
 Updating gradient with PCM contributions...
 -- total gradient after adding PCM contribution --
---------------------------------------------------
  Atom         X              Y              Z     
---------------------------------------------------
   1      -0.000978       0.000067       0.000022
   2       0.000129       0.000020       0.000045
   3       0.000055       0.000041       0.000030
   4       0.000002       0.000009       0.000003
   5      -0.000006      -0.000006      -0.000001
   6       0.000001      -0.000008       0.000002
   7       0.000490       0.000099      -0.000117
   8      -0.000001      -0.000007       0.000003
   9       0.000214      -0.000187       0.000011
  10       0.000091      -0.000015       0.000029
  11      -0.000001       0.000005       0.000002
  12      -0.000007      -0.000025      -0.000020
  13       0.000005       0.000002       0.000006
  14       0.000006       0.000007      -0.000015
---------------------------------------------------
 Number of fixed atoms: 0
 Gradient time:  CPU 568.01 s  wall 24.57 s
 ----------------------------------------------------------------
             Standard Nuclear Orientation (Angstroms)
    I     Atom           X                Y                Z
 ----------------------------------------------------------------
    1      C      -1.4420923595    -0.5480305962    -0.1388241651
    2      C      -0.8377017028     0.4808589429     0.8124631109
    3      O       0.4828792820     0.8770973032     0.3937281721
    4      C       1.5277216412     0.1508962914     0.8237056071
    5      O       1.3696503425    -0.8003252885     1.6391180705
    6      O       2.6595070760     0.4858599422     0.3765178145
    7      O      -2.7121913049    -0.8915817696     0.2498428783
    8      Li      3.2546283440    -0.9377606300     1.4665951572
    9      H      -0.7628976723    -1.4225146009    -0.1627040939
   10      H      -1.4178060798    -0.1156767146    -1.1576999279
   11      H      -0.8043459288     0.0895702672     1.8305212206
   12      H      -1.4319721409     1.3980076506     0.7964617520
   13      H      -4.6029084738     1.0652143737     0.3002994282
   14      Li     -4.2622810228    -1.1254251714     0.7395649756
 ----------------------------------------------------------------
 Nuclear Repulsion Energy =         354.85576497 hartrees
 There are       31 alpha and       30 beta electrons
 Discretize the solute cavity surface with Lebedev spheres
	Using 110 Lebedev grid points for each H atom
	Using 194 Lebedev grid points for other atoms
	Atomic van der Waals radii will be scaled by 1.20
 Remove points where switching function is < 1.0e-08
 Keep 1035 surface tesserae and discard 1261 interior tesserae
 Molecular Surface Area = 208.666 Angst**2

                       Distance Matrix (Angstroms)
             C (  1)   C (  2)   O (  3)   C (  4)   O (  5)   O (  6)
   C (  2)  1.526057
   O (  3)  2.453593  1.440930
   C (  4)  3.199181  2.388353  1.343110
   O (  5)  3.336260  2.682759  2.269605  1.262817
   O (  6)  4.261176  3.524279  2.211577  1.262187  2.216340
   O (  7)  1.371948  2.390365  3.654778  4.403742  4.312754  5.546939
   Li(  8)  4.978800  4.380358  3.482434  2.140254  1.897839  1.889215
   H (  9)  1.107519  2.139948  2.673909  2.948824  2.860322  3.955440
   H ( 10)  1.107081  2.138672  2.646721  3.559939  4.007599  4.397744
   H ( 11)  2.166005  1.091174  2.083632  2.540862  2.356864  3.777492
   H ( 12)  2.159150  1.092966  2.024895  3.211824  3.659484  4.212905
   H ( 13)  3.575772  3.844550  5.090123  6.220495  6.398760  7.285886
   Li( 14)  3.009720  3.783280  5.162000  5.929604  5.712577  7.116122
             O (  7)   Li(  8)   H (  9)   H ( 10)   H ( 11)   H ( 12)
   Li(  8)  6.089791
   H (  9)  2.061997  4.362352
   H ( 10)  2.063647  5.421659  1.768261
   H ( 11)  2.664785  4.202752  2.502212  3.057438
   H ( 12)  2.679547  5.279121  3.053360  2.471880  1.781910
   H ( 13)  2.721472  8.192255  4.598788  3.696639  4.209814  3.226727
   Li( 14)  1.642342  7.554318  3.626022  3.565143  3.824097  3.792308
             H ( 13)
   Li( 14)  2.260063
 
 Requested basis set is def2-TZVPPD
 There are 150 shells and 400 basis functions
 A cutoff of  1.0D-14 yielded  10343 shell pairs
 There are     74503 function pairs (     93829 Cartesian)
 Smallest overlap matrix eigenvalue = 8.77E-06
 Guess MOs from SCF MO coefficient file

 -----------------------------------------------------------------------
  General SCF calculation program by
  Eric Jon Sundstrom, Paul Horn, Yuezhi Mao, Dmitri Zuev, Alec White,
  David Stuck, Shaama M.S., Shane Yost, Joonho Lee, David Small,
  Daniel Levine, Susi Lehtola, Hugh Burton, Evgeny Epifanovsky,
  Bang C. Huynh
 -----------------------------------------------------------------------
 Exchange:     0.1670 Hartree-Fock + 1.0000 wB97X-V + LR-HF
 Correlation:  1.0000 wB97X-V
 Using SG-3 standard quadrature grid
 Nonlocal Correlation:  VV10 with C = 0.0100 and b = 6.00 and scale = 1.00000
 Grid used for NLC:  SG-1 standard quadrature
 
 Citation of the SMD model:
 Marenich, A.V.; Cramer, C.J.; Truhlar, D.G.
 J. Phys. Chem. B 2009, 113, 6378-6396.
 iSolventCode=           0
 Solvent: other                                                           
 
 vradii
            1           2           3           4           5           6
    1   1.8500000   1.8500000   2.2940000   1.8500000   2.2940000   2.2940000
            7           8           9          10          11          12
    1   2.2940000   2.1476001   1.2000000   1.2000000   1.2000000   1.2000000
           13          14
    1   1.2000000   2.1476001
 using 40 threads for integral computing
 -------------------------------------------------------
 OpenMP Integral computing Module                
 Release: version 1.0, May 2013, Q-Chem Inc. Pittsburgh 
 -------------------------------------------------------
 using 40 threads for integral computing
 -------------------------------------------------------
 OpenMP Integral computing Module                
 Release: version 1.0, May 2013, Q-Chem Inc. Pittsburgh 
 -------------------------------------------------------
 -------------------------------------------------------
 OpenMP BLAS3 based DFT computing Module                
 Release: version 1.0, May 2013, Q-Chem Inc. Pittsburgh 
 -------------------------------------------------------
 -------------------------------------------------------
 OpenMP BLAS3 based DFT computing Module                
 Release: version 1.0, May 2013, Q-Chem Inc. Pittsburgh 
 -------------------------------------------------------
 -------------------------------------------------------
 OpenMP BLAS3 based DFT computing Module                
 Release: version 1.0, May 2013, Q-Chem Inc. Pittsburgh 
 -------------------------------------------------------
 A unrestricted SCF calculation will be
 performed using Roothaan-Hall, DIIS
 SCF converges when DIIS error is below 1.0e-08
 ---------------------------------------
  Cycle       Energy         DIIS error
 ---------------------------------------
    1    -432.0854423111      1.10e-04  Roothaan Step
 ---------------------------------------
  Cycle       Energy         DIIS error
 ---------------------------------------
    1    -433.3549473604      1.18e-04  
    2    -433.3564655071      7.91e-05  
    3    -433.3568303834      2.86e-05  
    4    -433.3568948124      1.06e-05  
    5    -433.3569106998      3.97e-06  
    6    -433.3569147340      1.96e-06  
    7    -433.3569162439      1.28e-06  
    8    -433.3569168933      6.65e-07  
    9    -433.3569172965      3.07e-07  
   10    -433.3569173566      1.45e-07  
   11    -433.3569173645      4.98e-08  
   12    -433.3569173649      1.55e-08  
   13    -433.3569173650      4.93e-09  Convergence criterion met
 ---------------------------------------
 SCF time:   CPU 2962.57s  wall 120.00s 
<S^2> =          0.752448503
(3)  G-ENP(liq) elect-nuc-pol free energy of system     -433.356917365 a.u.
(4)  G-CDS(liq) cavity-dispersion-solvent structure 
     free energy                                               -2.2632 kcal/mol
(6)  G-S(liq) free energy of system                     -433.360524080 a.u.
 SCF   energy in the final basis set =     -433.3569173650
 Total energy in the final basis set =     -433.3605240804
 
 --------------------------------------------------------------
 
                    Orbital Energies (a.u.)
 --------------------------------------------------------------
 
 Alpha MOs
 -- Occupied --
-19.2338 -19.1716 -19.1675 -19.1209 -10.4088 -10.2939 -10.2782  -2.0923
 -2.0801  -1.2328  -1.1342  -1.0861  -1.0506  -0.8442  -0.7213  -0.6569
 -0.5934  -0.5884  -0.5728  -0.5400  -0.5027  -0.4978  -0.4760  -0.4390
 -0.4252  -0.4150  -0.4004  -0.3774  -0.3689  -0.3179  -0.3143
 -- Virtual --
  0.0307   0.0321   0.0439   0.0467   0.0518   0.0528   0.0590   0.0718
  0.0979   0.1135   0.1174   0.1206   0.1321   0.1358   0.1374   0.1390
  0.1483   0.1499   0.1572   0.1603   0.1650   0.1715   0.1734   0.1771
  0.1832   0.2002   0.2072   0.2110   0.2198   0.2290   0.2338   0.2439
  0.2555   0.2640   0.2662   0.2705   0.2860   0.2983   0.3022   0.3101
  0.3194   0.3211   0.3308   0.3366   0.3414   0.3490   0.3541   0.3646
  0.3725   0.3755   0.3792   0.3839   0.3886   0.3974   0.4082   0.4139
  0.4181   0.4208   0.4258   0.4322   0.4367   0.4382   0.4451   0.4476
  0.4503   0.4672   0.4717   0.4743   0.4838   0.4872   0.4963   0.5004
  0.5076   0.5149   0.5200   0.5247   0.5295   0.5486   0.5544   0.5599
  0.5621   0.5762   0.5832   0.5837   0.5951   0.6031   0.6050   0.6217
  0.6283   0.6365   0.6438   0.6480   0.6622   0.6773   0.6825   0.6870
  0.6932   0.7042   0.7139   0.7191   0.7262   0.7387   0.7419   0.7484
  0.7538   0.7772   0.7847   0.7931   0.8040   0.8165   0.8288   0.8299
  0.8446   0.8527   0.8579   0.8687   0.8716   0.8956   0.9051   0.9164
  0.9259   0.9423   0.9499   0.9595   0.9705   0.9761   0.9918   1.0034
  1.0114   1.0272   1.0365   1.0382   1.0490   1.0675   1.0828   1.0906
  1.1153   1.1187   1.1241   1.1360   1.1556   1.1983   1.2049   1.2273
  1.2406   1.2535   1.2605   1.2804   1.2986   1.3129   1.3178   1.3360
  1.3458   1.3694   1.3823   1.3877   1.4053   1.4091   1.4355   1.4513
  1.4608   1.4947   1.5214   1.5510   1.5629   1.5823   1.6241   1.6349
  1.7311   1.7486   1.7547   1.7745   1.7957   1.8034   1.8247   1.8830
  1.8996   1.9231   1.9404   1.9610   1.9942   2.0093   2.0177   2.0472
  2.0653   2.0975   2.1215   2.1563   2.1716   2.1796   2.2135   2.2448
  2.2727   2.2917   2.3270   2.3663   2.3958   2.4580   2.4632   2.4797
  2.4985   2.5105   2.5478   2.5625   2.6148   2.6480   2.6606   2.7361
  2.7461   2.8191   2.8538   2.9084   2.9815   2.9953   3.0163   3.0257
  3.0397   3.0611   3.0658   3.1182   3.1281   3.1350   3.1749   3.2233
  3.2345   3.2656   3.2841   3.2965   3.3044   3.3086   3.3172   3.3290
  3.3510   3.3620   3.3652   3.3707   3.3759   3.3936   3.4144   3.4377
  3.4412   3.4483   3.4650   3.4988   3.5298   3.5560   3.5594   3.5887
  3.6037   3.6204   3.6453   3.6501   3.6653   3.6868   3.7007   3.7574
  3.7954   3.8263   3.8408   3.8559   3.8668   3.8965   3.9082   3.9255
  3.9404   3.9731   4.0060   4.0525   4.0755   4.0975   4.1640   4.1664
  4.2104   4.2255   4.2563   4.3117   4.3407   4.3855   4.4303   4.4735
  4.5176   4.5364   4.6031   4.6667   4.7253   4.7440   4.7808   4.8068
  4.8551   4.8668   4.9156   5.0000   5.0506   5.1171   5.1244   5.1662
  5.1819   5.2227   5.2422   5.2867   5.3109   5.3329   5.3557   5.3858
  5.4075   5.4188   5.5062   5.5318   5.5627   5.5889   5.5991   5.6255
  5.6617   5.6752   5.6852   5.7123   5.7881   5.7914   5.8574   5.9101
  5.9341   5.9430   6.0756   6.0811   6.0885   6.1635   6.1767   6.2027
  6.2379   6.2604   6.2709   6.2769   6.3037   6.3166   6.3680   6.4722
[...]
 Red. Mass:       4.4626                 3.6682                 1.2794
 IR Active:          YES                    YES                    YES
 IR Intens:       83.653                 68.133                 35.384
 Raman Active:       YES                    YES                    YES
               X      Y      Z        X      Y      Z        X      Y      Z
 C         -0.003  0.144 -0.048   -0.115  0.110 -0.125   -0.011  0.001  0.011
 C         -0.005  0.044  0.058    0.017 -0.022 -0.066   -0.005  0.003  0.004
 O         -0.012  0.065  0.059    0.017 -0.060 -0.111   -0.004 -0.008 -0.003
 C         -0.041 -0.059 -0.075    0.025  0.042  0.046   -0.003 -0.003  0.001
 O         -0.063 -0.081 -0.104    0.006  0.078  0.085    0.002 -0.004 -0.000
 O         -0.043 -0.116 -0.118    0.046  0.066  0.117   -0.004  0.005  0.003
 O          0.133 -0.174  0.107    0.045 -0.148  0.172   -0.022  0.035 -0.007
 Li        -0.006  0.254  0.358   -0.046 -0.208 -0.179    0.004  0.004 -0.010
 H          0.159  0.278 -0.350    0.005  0.210 -0.501   -0.022 -0.009  0.030
 H         -0.262  0.359  0.036   -0.466  0.320 -0.044    0.016 -0.008  0.006
 H          0.023 -0.087  0.006    0.073 -0.164 -0.125   -0.004  0.011  0.008
 H          0.005  0.053  0.192    0.070  0.016  0.106    0.001  0.006 -0.001
 H          0.278  0.248 -0.152    0.179  0.189 -0.067    0.363  0.843 -0.337
 Li         0.029  0.101 -0.080   -0.073  0.049 -0.083    0.041 -0.190  0.043
 TransDip  -0.047  0.267  0.112   -0.116 -0.014 -0.237   -0.051 -0.173  0.060

 Mode:                10                     11                     12
 Frequency:       288.77                 325.96                 367.84
 Force Cnst:      0.1880                 0.3120                 0.5935
 Red. Mass:       3.8274                 4.9835                 7.4450
 IR Active:          YES                    YES                    YES
 IR Intens:       48.522                 35.031                 38.017
 Raman Active:       YES                    YES                    YES
               X      Y      Z        X      Y      Z        X      Y      Z
 C         -0.041  0.040 -0.046   -0.013 -0.164 -0.224    0.176  0.007 -0.028
 C         -0.108  0.191 -0.157    0.003 -0.178 -0.215    0.095 -0.160  0.040
 O          0.018 -0.034  0.078    0.030  0.179  0.220   -0.068 -0.122 -0.149
 C         -0.026 -0.100  0.092    0.020  0.048  0.036   -0.169 -0.080  0.032
 O          0.057 -0.116  0.074    0.011  0.012 -0.007   -0.224 -0.028  0.071
 O         -0.050 -0.043  0.038    0.006 -0.035 -0.058   -0.163 -0.028  0.082
 O          0.001 -0.042  0.025    0.011  0.152  0.192    0.205  0.231  0.125
 Li         0.326  0.208 -0.216   -0.025 -0.016  0.055    0.060  0.324 -0.297
 H          0.044  0.104  0.050   -0.177 -0.286 -0.284    0.087 -0.064 -0.104
 H         -0.105 -0.085 -0.100   -0.189 -0.251 -0.261    0.175  0.066 -0.005
 H         -0.399  0.400 -0.060   -0.172 -0.285 -0.252    0.268 -0.342 -0.042
 H          0.015  0.267 -0.480   -0.153 -0.282 -0.225   -0.020 -0.233  0.264
 H         -0.005 -0.010  0.004    0.011  0.018  0.001   -0.001 -0.069  0.024
 Li        -0.020  0.006  0.000   -0.024 -0.028 -0.014    0.262  0.044 -0.092
 TransDip   0.069  0.155 -0.145   -0.026 -0.137 -0.129    0.117  0.043 -0.153

 Mode:                13                     14                     15
 Frequency:       433.60                 539.94                 652.98
 Force Cnst:      0.8887                 1.2195                 1.7824
 Red. Mass:       8.0228                 7.0998                 7.0951
 IR Active:          YES                    YES                    YES
 IR Intens:       11.813                222.498                 33.607
 Raman Active:       YES                    YES                    YES
               X      Y      Z        X      Y      Z        X      Y      Z
 C          0.079  0.064 -0.037    0.020  0.004  0.003   -0.059 -0.000  0.002
 C         -0.127  0.071 -0.069   -0.105 -0.021  0.021   -0.349 -0.051  0.089
 O         -0.114 -0.241  0.018   -0.168  0.060 -0.088   -0.175 -0.135  0.063
 C         -0.028 -0.060 -0.005   -0.078  0.047 -0.045    0.077  0.074 -0.107
 O          0.284 -0.111  0.055   -0.042  0.068 -0.049    0.023  0.141 -0.112
 O         -0.198  0.232 -0.130   -0.068  0.007  0.013    0.323 -0.165  0.100
 O          0.149  0.131  0.088    0.043  0.051  0.028    0.034  0.058  0.043
 Li        -0.332 -0.245  0.239    0.724 -0.464  0.272   -0.086  0.121 -0.090
 H          0.132  0.098  0.041    0.033  0.011  0.037   -0.003  0.043  0.022
 H          0.070 -0.010 -0.071    0.043 -0.008 -0.003   -0.038  0.046  0.023
 H         -0.391  0.194 -0.004    0.004 -0.105 -0.016   -0.577  0.064  0.140
 H         -0.026  0.134 -0.320   -0.227 -0.096  0.124   -0.260  0.001 -0.190
 H          0.007 -0.045  0.013    0.001 -0.008  0.002    0.023 -0.040  0.006
 Li         0.216  0.040 -0.072    0.112  0.019 -0.036    0.310  0.054 -0.098
 TransDip  -0.099 -0.048 -0.005    0.403 -0.227  0.118   -0.148  0.073 -0.084

 Mode:                16                     17                     18
 Frequency:       716.45                 755.43                 801.81
 Force Cnst:      1.4478                 1.9142                 0.4803
 Red. Mass:       4.7873                 5.6929                 1.2679
 IR Active:          YES                    YES                    YES
 IR Intens:       26.202                132.157                  2.703
 Raman Active:       YES                    YES                    YES
               X      Y      Z        X      Y      Z        X      Y      Z
 C         -0.015  0.004 -0.005   -0.271 -0.067  0.091   -0.021  0.047 -0.037
 C         -0.064  0.045 -0.031    0.090  0.017 -0.021   -0.040  0.048 -0.036
 O         -0.086  0.215 -0.163    0.092  0.065 -0.000    0.015 -0.046  0.033
 C         -0.112  0.025  0.012    0.022 -0.009  0.057    0.035 -0.007  0.009
 O          0.297 -0.082  0.014   -0.032 -0.044  0.030   -0.053  0.003  0.002
 O         -0.048 -0.175  0.147   -0.052  0.044 -0.045    0.028  0.031 -0.033
 O          0.000 -0.002  0.007   -0.152 -0.053 -0.004    0.009 -0.015  0.013
 Li        -0.112  0.056 -0.029    0.002 -0.008  0.009    0.006 -0.002  0.001
 H          0.036  0.032  0.269   -0.368 -0.141  0.051    0.087  0.109  0.481
 H          0.054 -0.243 -0.106   -0.353 -0.124  0.063    0.088 -0.425 -0.227
 H          0.351 -0.333 -0.190    0.202  0.056 -0.008    0.031 -0.444 -0.228
 H         -0.236 -0.060  0.505    0.133  0.050  0.070    0.083  0.136  0.462
 H          0.004 -0.004  0.000    0.039 -0.057  0.006   -0.003  0.005 -0.001
 Li         0.032  0.006 -0.010    0.649  0.110 -0.207   -0.002 -0.001  0.001
 TransDip  -0.137  0.079 -0.044    0.359  0.048 -0.065    0.036 -0.029  0.025

 Mode:                19                     20                     21
 Frequency:       842.63                 976.38                1074.38
 Force Cnst:      5.1923                 3.8725                 2.6382
 Red. Mass:      12.4118                 6.8945                 3.8792
 IR Active:          YES                    YES                    YES
 IR Intens:       40.249                 17.371                 42.832
 Raman Active:       YES                    YES                    YES
               X      Y      Z        X      Y      Z        X      Y      Z
 C          0.022  0.002  0.002   -0.038  0.053  0.005   -0.017 -0.207 -0.276
 C         -0.034 -0.012  0.003    0.323  0.028 -0.097   -0.044  0.175  0.291
 O         -0.021 -0.135 -0.149   -0.070 -0.199  0.192    0.095 -0.032 -0.030
 C          0.106  0.570  0.688   -0.171  0.136 -0.057   -0.044  0.021 -0.016
 O         -0.032 -0.159 -0.190    0.115  0.229 -0.213    0.013  0.024 -0.023
 O         -0.020 -0.151 -0.194   -0.161 -0.160  0.149   -0.045 -0.008  0.018
 O          0.014  0.009 -0.000   -0.021 -0.034 -0.009    0.010  0.025  0.031
 Li         0.005  0.022  0.029    0.019 -0.007  0.004    0.010 -0.008  0.005
 H          0.037  0.022 -0.054   -0.077  0.009  0.188   -0.087 -0.263 -0.259
 H          0.016  0.077  0.033   -0.031 -0.215 -0.107   -0.072 -0.298 -0.315
 H         -0.020  0.051  0.022    0.017  0.025 -0.081    0.040  0.270  0.330
 H         -0.043 -0.017 -0.060    0.624  0.225 -0.114    0.195  0.333  0.275
 H         -0.003  0.004 -0.000   -0.003  0.004 -0.001    0.001 -0.001  0.000
 Li        -0.030 -0.005  0.010    0.022  0.003 -0.007   -0.007 -0.001  0.002
 TransDip   0.008  0.119  0.165    0.063  0.101 -0.060   -0.208  0.021 -0.020

 Mode:                22                     23                     24
 Frequency:      1133.07                1174.28                1237.80
 Force Cnst:      3.6465                 1.6116                 7.2068
 Red. Mass:       4.8208                 1.9836                 7.9835
 IR Active:          YES                    YES                    YES
 IR Intens:      145.620                 32.238                512.596
 Raman Active:       YES                    YES                    YES
               X      Y      Z        X      Y      Z        X      Y      Z
 C         -0.027  0.122  0.022   -0.070  0.132 -0.114   -0.467 -0.108  0.164
 C         -0.214 -0.224  0.064    0.105 -0.087  0.080   -0.030 -0.028 -0.030
 O          0.347  0.027 -0.057   -0.091  0.051 -0.034    0.022  0.009  0.018
 C         -0.065  0.036 -0.025    0.014 -0.000  0.004   -0.020  0.012 -0.002
 O          0.034  0.074 -0.064   -0.007 -0.045  0.037   -0.003 -0.005  0.003
 O         -0.160 -0.028  0.048    0.038  0.009 -0.014    0.006  0.003 -0.005
 O          0.008 -0.018  0.014    0.023 -0.042  0.031    0.470  0.105 -0.159
 Li         0.015 -0.012  0.008   -0.003  0.003 -0.002    0.005 -0.003  0.002
 H          0.010  0.147  0.388   -0.353 -0.104  0.422   -0.410 -0.150  0.056
 H          0.256  0.029  0.005    0.441 -0.222 -0.253   -0.349 -0.153  0.063
 H         -0.560 -0.171  0.080   -0.171  0.285  0.232    0.204  0.154  0.042
 H          0.153 -0.013 -0.320    0.118 -0.078 -0.336    0.123  0.086  0.095
 H          0.002 -0.002 -0.000   -0.010  0.013 -0.001    0.007 -0.008  0.000
 Li         0.006  0.001 -0.001   -0.000 -0.001  0.000   -0.189 -0.030  0.059
 TransDip  -0.386  0.008 -0.019    0.181  0.003 -0.019   -0.693 -0.142  0.162

 Mode:                25                     26                     27
 Frequency:      1265.51                1316.45                1342.86
 Force Cnst:      1.1546                 1.1044                 1.4271
 Red. Mass:       1.2236                 1.0816                 1.3432
 IR Active:          YES                    YES                    YES
 IR Intens:        4.489                  3.559                141.576
 Raman Active:       YES                    YES                    YES
               X      Y      Z        X      Y      Z        X      Y      Z
 C         -0.008  0.027 -0.022   -0.020  0.029 -0.033   -0.028 -0.045 -0.031
 C         -0.050  0.056 -0.043   -0.005 -0.032  0.015   -0.064 -0.069 -0.054
 O          0.040 -0.045  0.034    0.022 -0.025  0.023   -0.009  0.007  0.025
 C          0.003 -0.012  0.007    0.005 -0.005  0.001   -0.065  0.049 -0.028
 O          0.001  0.029 -0.024   -0.001  0.014 -0.011   -0.003 -0.036  0.030
 O         -0.015 -0.003  0.005   -0.010 -0.002  0.003    0.038  0.007 -0.013
 O          0.008 -0.028  0.023   -0.008  0.012 -0.005   -0.017  0.006  0.022
 Li        -0.001 -0.000  0.000   -0.000  0.000 -0.000    0.008 -0.004  0.003
 H         -0.448 -0.290 -0.007    0.356  0.299  0.177    0.286  0.192  0.079
 H          0.505  0.245  0.064   -0.267 -0.235 -0.137    0.352  0.269  0.103
 H          0.433  0.079 -0.058    0.478  0.328  0.132    0.434  0.261  0.053
 H         -0.387 -0.153  0.093   -0.388 -0.279 -0.140    0.526  0.311  0.089
 H         -0.004  0.005 -0.000    0.002 -0.002 -0.000    0.008 -0.009  0.000
 Li         0.003  0.000 -0.001    0.001  0.000 -0.001    0.010  0.002 -0.003
 TransDip  -0.065 -0.019 -0.002   -0.050  0.020 -0.027   -0.345  0.116 -0.112

 Mode:                28                     29                     30
 Frequency:      1408.60                1444.00                1497.38
 Force Cnst:      2.1315                 2.2383                 1.9445
 Red. Mass:       1.8233                 1.8219                 1.4719
 IR Active:          YES                    YES                    YES
 IR Intens:      161.361                327.849                303.975
 Raman Active:       YES                    YES                    YES
               X      Y      Z        X      Y      Z        X      Y      Z
 C         -0.117 -0.099 -0.050    0.056  0.048  0.027   -0.027  0.006  0.023
 C          0.068  0.033  0.003   -0.059 -0.084 -0.067    0.059 -0.008 -0.051
 O         -0.028  0.020 -0.020   -0.034  0.031 -0.012    0.049 -0.025  0.006
 C          0.130 -0.088  0.052    0.146 -0.101  0.064   -0.134  0.063 -0.034
 O          0.000  0.053 -0.044   -0.001  0.059 -0.049    0.004 -0.033  0.027
 O         -0.061 -0.011  0.019   -0.064 -0.010  0.018    0.056  0.011 -0.017
 O          0.001  0.016  0.019   -0.000 -0.002 -0.003   -0.009 -0.002  0.004
 Li        -0.012  0.007 -0.004   -0.012  0.007 -0.004    0.009 -0.007  0.004
 H          0.484  0.331  0.149   -0.151 -0.105 -0.209    0.104  0.097 -0.210
 H          0.492  0.375  0.140   -0.087 -0.252 -0.100    0.219 -0.132 -0.046
 H         -0.320 -0.045 -0.001   -0.022  0.578  0.203   -0.475  0.364  0.119
 H         -0.184 -0.114  0.096    0.249  0.145  0.559   -0.303 -0.216  0.564
 H          0.009 -0.011 -0.000   -0.004  0.005  0.000    0.003 -0.004  0.000
 Li         0.004  0.001 -0.001   -0.003 -0.001  0.001    0.004  0.001 -0.001
 TransDip   0.310 -0.208  0.162    0.517 -0.196  0.174   -0.530  0.175 -0.009

 Mode:                31                     32                     33
 Frequency:      1507.39                1619.54                2915.14
 Force Cnst:      1.4618                18.0175                 5.3034
 Red. Mass:       1.0919                11.6591                 1.0592
 IR Active:          YES                    YES                    YES
 IR Intens:        2.099                892.051                248.356
 Raman Active:       YES                    YES                    YES
               X      Y      Z        X      Y      Z        X      Y      Z
 C          0.041 -0.028 -0.062   -0.004 -0.002  0.009    0.013 -0.000 -0.067
 C          0.015 -0.009 -0.023   -0.002  0.024 -0.029    0.002 -0.000  0.001
 O          0.004 -0.004  0.000   -0.014 -0.057  0.044   -0.001 -0.000  0.000
 C         -0.014  0.007 -0.005    0.486  0.482 -0.472    0.000 -0.000  0.000
 O          0.001 -0.003  0.003   -0.079 -0.222  0.196    0.000  0.000  0.000
 O          0.006  0.001 -0.002   -0.267 -0.113  0.134   -0.000  0.000  0.000
 O          0.008  0.000 -0.005    0.002 -0.001 -0.000    0.006  0.001 -0.001
 Li         0.001 -0.001  0.000    0.029  0.028 -0.028    0.000 -0.000  0.000
 H         -0.141 -0.147  0.626   -0.030 -0.008 -0.072   -0.247  0.336 -0.019
 H         -0.443  0.468  0.174    0.054 -0.014 -0.006    0.011 -0.363  0.830
 H         -0.135  0.179  0.059   -0.090  0.124 -0.001    0.000  0.004 -0.013
 H         -0.046 -0.037  0.238   -0.169 -0.061  0.195   -0.010  0.012  0.001
 H         -0.003  0.004 -0.000   -0.001  0.001  0.000   -0.002  0.002 -0.000
 Li        -0.004 -0.001  0.001   -0.001 -0.000  0.000   -0.002 -0.000  0.000
 TransDip   0.012  0.045  0.001    0.582  0.546 -0.528    0.292 -0.001 -0.411

 Mode:                34                     35                     36
 Frequency:      2934.87                3084.63                3146.98
 Force Cnst:      5.5666                 5.9373                 6.4649
 Red. Mass:       1.0969                 1.0591                 1.1080
 IR Active:          YES                    YES                    YES
 IR Intens:      148.884                 73.611                 34.269
 Raman Active:       YES                    YES                    YES
               X      Y      Z        X      Y      Z        X      Y      Z
 C          0.042 -0.074  0.030    0.002 -0.001  0.002   -0.002  0.005 -0.003
 C         -0.001  0.003 -0.001    0.034 -0.041 -0.043   -0.028  0.064 -0.065
 O         -0.001  0.000 -0.000    0.002  0.000 -0.000    0.000 -0.000  0.000
 C         -0.000 -0.001  0.000   -0.002  0.001 -0.001    0.001  0.001 -0.001
 O          0.000  0.000  0.000   -0.000 -0.000  0.000   -0.001 -0.000  0.000
 O          0.000  0.000 -0.000    0.001 -0.000 -0.000   -0.000 -0.000  0.000
 O          0.002  0.001 -0.001   -0.001 -0.000  0.000    0.000 -0.000  0.000
 Li        -0.000 -0.000 -0.000   -0.000  0.000 -0.000    0.000 -0.000 -0.000
 H         -0.539  0.734  0.017   -0.010  0.014  0.000    0.018 -0.029 -0.000
 H          0.004  0.140 -0.374   -0.001  0.005 -0.012    0.003 -0.013  0.035
 H         -0.001 -0.010  0.026    0.027 -0.220  0.530    0.032 -0.293  0.764
 H          0.027 -0.039 -0.000   -0.439  0.686 -0.027    0.301 -0.477  0.008
 H         -0.000  0.000  0.000    0.000 -0.000  0.000    0.000 -0.000 -0.000
 Li        -0.001 -0.000  0.000    0.000 -0.000 -0.000   -0.000  0.000 -0.000
 TransDip   0.246 -0.289  0.094    0.194 -0.149 -0.125   -0.037  0.123 -0.136

 STANDARD THERMODYNAMIC QUANTITIES AT   298.15 K  AND     1.00 ATM

   This Molecule has  1 Imaginary Frequencies
   Zero point vibrational energy:       51.053 kcal/mol

   Atom    1 Element C  Has Mass   12.00000
   Atom    2 Element C  Has Mass   12.00000
   Atom    3 Element O  Has Mass   15.99491
   Atom    4 Element C  Has Mass   12.00000
   Atom    5 Element O  Has Mass   15.99491
   Atom    6 Element O  Has Mass   15.99491
   Atom    7 Element O  Has Mass   15.99491
   Atom    8 Element Li Has Mass    7.01600
   Atom    9 Element H  Has Mass    1.00783
   Atom   10 Element H  Has Mass    1.00783
   Atom   11 Element H  Has Mass    1.00783
   Atom   12 Element H  Has Mass    1.00783
   Atom   13 Element H  Has Mass    1.00783
   Atom   14 Element Li Has Mass    7.01600
   Molecular Mass:   119.050790 amu
   Principal axes and moments of inertia in amu*Bohr^2:
                             1           2           3
    Eigenvalues --      313.31792  2110.25675  2264.54936
          X               0.98662    -0.05351    -0.15404
          Y               0.12066     0.87496     0.46893
          Z               0.10968    -0.48124     0.86970
   Rotational Symmetry Number is   1
   The Molecule is an Asymmetric Top
   Translational Enthalpy:        0.889 kcal/mol
   Rotational Enthalpy:           0.889 kcal/mol
   Vibrational Enthalpy:         56.087 kcal/mol
   gas constant (RT):             0.592 kcal/mol
   Translational Entropy:        40.238  cal/mol.K
   Rotational Entropy:           28.794  cal/mol.K
   Vibrational Entropy:          34.673  cal/mol.K

   Total Enthalpy:               58.456 kcal/mol
   Total Entropy:               103.705  cal/mol.K
Archival summary:
1\1\n0082.lr6\FREQ\ProcedureUnspecified\BasisUnspecified\43i25(2)\ewcspott\TueAug1105:44:222020TueAug1105:44:222020\0\\#,FREQ,ProcedureUnspecified,BasisUnspecified,\\0,2\O\C,1,1.34311\O,2,1.26219,1,116.145\O,2,1.26282,1,121.105,3,179.316,0\C,1,1.44093,2,118.115,3,176.267,0\H,5,1.09117,1,109.982,2,35.1945,0\H,5,1.09297,1,105.266,2,152.875,0\C,5,1.52673,1,111.545,2,-87.8794,0\H,8,1.10673,5,107.632,1,58.5186,0\H,8,1.10747,5,107.494,1,-55.266,0\O,8,1.3717,5,111.006,1,-178.383,0\Li,11,1.64234,8,173.704,5,44.9867,0\Li,3,1.88922,2,82.9957,1,179.457,0\H,12,2.26006,11,86.9208,8,17.94,0\\\@

 Total job time:  12584.47s(wall), 305690.14s(cpu) 
 Tue Aug 11 05:44:22 2020

        *************************************************************
        *                                                           *
        *  Thank you very much for using Q-Chem.  Have a nice day.  *
        *                                                           *
        *************************************************************


