
Running Job 1 of 1 mol.qin
qchem mol.qin_426084.0 /tmp/scratch/ 0
/clusterfs/mp/software/qchem/exe/qcprog.exe_s mol.qin_426084.0 /tmp/scratch/
                  Welcome to Q-Chem
     A Quantum Leap Into The Future Of Chemistry


 Q-Chem 5.2, Q-Chem, Inc., Pleasanton, CA (2019)

 Yihan Shao,  Zhengting Gan,  E. Epifanovsky,  A. T. B. Gilbert,  M. Wormit,  
 J. Kussmann,  A. W. Lange,  A. Behn,  Jia Deng,  Xintian Feng,  D. Ghosh,  
 M. Goldey,  P. R. Horn,  L. D. Jacobson,  I. Kaliman,  T. Kus,  A. Landau,  
 Jie Liu,  E. I. Proynov,  R. M. Richard,  R. P. Steele,  E. J. Sundstrom,  
 H. L. Woodcock III,  P. M. Zimmerman,  D. Zuev,  B. Alam,  B. Albrecht,  
 E. Alguire,  S. A. Baeppler,  D. Barton,  Z. Benda,  Y. A. Bernard,  
 E. J. Berquist,  K. B. Bravaya,  H. Burton,  K. Carter-Fenk,  D. Casanova,  
 Chun-Min Chang,  Yunqing Chen,  A. Chien,  K. D. Closser,  M. P. Coons,  
 S. Coriani,  S. Dasgupta,  A. L. Dempwolff,  M. Diedenhofen,  Hainam Do,  
 R. G. Edgar,  Po-Tung Fang,  S. Faraji,  S. Fatehi,  Qingguo Feng,  
 J. Fosso-Tande,  J. Gayvert,  Qinghui Ge,  A. Ghysels,  G. Gidofalvi,  
 J. Gomes,  J. Gonthier,  A. Gunina,  D. Hait,  M. W. D. Hanson-Heine,  
 P. H. P. Harbach,  A. W. Hauser,  M. F. Herbst,  J. E. Herr,  
 E. G. Hohenstein,  Z. C. Holden,  Kerwin Hui,  B. C. Huynh,  T.-C. Jagau,  
 Hyunjun Ji,  B. Kaduk,  K. Khistyaev,  Jaehoon Kim,  P. Klunzinger,  K. Koh,  
 D. Kosenkov,  L. Koulias,  T. Kowalczyk,  C. M. Krauter,  A. Kunitsa,  
 Ka Un Lao,  A. Laurent,  K. V. Lawler,  Joonho Lee,  D. Lefrancois,  
 S. Lehtola,  D. S. Levine,  Yi-Pei Li,  You-Sheng Lin,  Fenglai Liu,  
 Kuan-Yu Liu,  E. Livshits,  M. Loipersberger,  A. Luenser,  P. Manohar,  
 E. Mansoor,  S. F. Manzer,  Shan-Ping Mao,  Yuezhi Mao,  N. Mardirossian,  
 A. V. Marenich,  T. Markovich,  L. A. Martinez-Martinez,  S. A. Maurer,  
 N. J. Mayhall,  S. C. McKenzie,  J.-M. Mewes,  P. Morgante,  A. F. Morrison,  
 J. W. Mullinax,  K. Nanda,  T. S. Nguyen-Beck,  R. Olivares-Amaya,  
 J. A. Parkhill,  S. K. Paul,  Zheng Pei,  T. M. Perrine,  F. Plasser,  
 P. Pokhilko,  S. Prager,  A. Prociuk,  E. Ramos,  B. Rana,  D. R. Rehn,  
 F. Rob,  M. Scheurer,  M. Schneider,  N. Sergueev,  S. M. Sharada,  
 S. Sharma,  D. W. Small,  T. Stauch,  C. J. Stein,  T. Stein,  Yu-Chuan Su,  
 S. P. Veccham,  A. J. W. Thom,  A. Tkatchenko,  T. Tsuchimochi,  
 N. M. Tubman,  L. Vogt,  M. L. Vidal,  O. Vydrov,  M. A. Watson,  J. Wenzel,  
 M. de Wergifosse,  T. A. Wesolowski,  A. White,  J. Witte,  A. Yamada,  
 Jun Yang,  K. Yao,  S. Yeganeh,  S. R. Yost,  Zhi-Qiang You,  A. Zech,  
 Igor Ying Zhang,  Xing Zhang,  Yan Zhao,  Ying Zhu,  B. R. Brooks,  
 G. K. L. Chan,  C. J. Cramer,  M. S. Gordon,  W. J. Hehre,  A. Klamt,  
 M. W. Schmidt,  C. D. Sherrill,  D. G. Truhlar,  A. Aspuru-Guzik,  R. Baer,  
 A. T. Bell,  N. A. Besley,  Jeng-Da Chai,  A. E. DePrince, III,  
 R. A. DiStasio Jr.,  A. Dreuw,  B. D. Dunietz,  T. R. Furlani,  
 Chao-Ping Hsu,  Yousung Jung,  Jing Kong,  D. S. Lambrecht,  WanZhen Liang,  
 C. Ochsenfeld,  V. A. Rassolov,  L. V. Slipchenko,  J. E. Subotnik,  
 T. Van Voorhis,  J. M. Herbert,  A. I. Krylov,  P. M. W. Gill,  M. Head-Gordon

 Contributors to earlier versions of Q-Chem not listed above: 
 R. D. Adamson,  B. Austin,  J. Baker,  G. J. O. Beran,  K. Brandhorst,  
 S. T. Brown,  E. F. C. Byrd,  A. K. Chakraborty,  C.-L. Cheng,  
 Siu Hung Chien,  D. M. Chipman,  D. L. Crittenden,  H. Dachsel,  
 R. J. Doerksen,  A. D. Dutoi,  L. Fusti-Molnar,  W. A. Goddard III,  
 A. Golubeva-Zadorozhnaya,  S. R. Gwaltney,  G. Hawkins,  A. Heyden,  
 S. Hirata,  G. Kedziora,  F. J. Keil,  C. Kelley,  Jihan Kim,  R. A. King,  
 R. Z. Khaliullin,  P. P. Korambath,  W. Kurlancheek,  A. M. Lee,  M. S. Lee,  
 S. V. Levchenko,  Ching Yeh Lin,  D. Liotard,  R. C. Lochan,  I. Lotan,  
 P. E. Maslen,  N. Nair,  D. P. O'Neill,  D. Neuhauser,  E. Neuscamman,  
 C. M. Oana,  R. Olson,  B. Peters,  R. Peverati,  P. A. Pieniazek,  
 Y. M. Rhee,  J. Ritchie,  M. A. Rohrdanz,  E. Rosta,  N. J. Russ,  
 H. F. Schaefer III,  N. E. Schultz,  N. Shenvi,  A. C. Simmonett,  A. Sodt,  
 D. Stuck,  K. S. Thanthiriwatte,  V. Vanovschi,  Tao Wang,  A. Warshel,  
 C. F. Williams,  Q. Wu,  X. Xu,  W. Zhang

 Please cite Q-Chem as follows:
 Y. Shao et al., Mol. Phys. 113, 184-215 (2015)
 DOI: 10.1080/00268976.2014.952696

 Q-Chem 5.2.2 for Intel X86 EM64T Linux

 Parts of Q-Chem use Armadillo 8.300.2 (Tropical Shenanigans).
 http://arma.sourceforge.net/

 Q-Chem begins on Wed May 20 16:09:06 2020  

Host: 
0

     Scratch files written to /tmp/scratch//
 Nov2519 |scratch|qcdevops|jenkins|workspace|build_RNUM 6829   
Processing $rem in /clusterfs/mp/software/qchem/config/preferences:
	 MEM_TOTAL  96000 
NAlpha2: 80
NElect   80
Mult     1
Symmetry turned off for PCM/SM12/SMD calculation

Checking the input file for inconsistencies... 	...done.

--------------------------------------------------------------
User input:
--------------------------------------------------------------
$molecule
-1 1
O     -5.3896121047     -1.2884457100      0.4893663227
C     -6.2176180820     -0.2611068540      0.8616031488
C     -4.1094671668     -1.2113750997      1.1239252091
O     -7.3794088010     -0.2854148377      0.4777351497
O     -5.6380073203      0.6226972097      1.5795478624
C     -3.8081625455      0.2068995948      1.5560808087
H     -3.3763128099     -1.5437486548      0.3933933077
H     -4.0993208729     -1.8814597157      1.9888426390
H     -3.7435736245      0.4711031377      2.5968250653
H     -3.6044640595      0.9547351565      0.8077890474
O     -1.9093242017     -0.1560336816      1.7181552625
C     -1.1962091485     -0.0162801623      0.6562082436
O     -1.7282636601      0.3187885192     -0.4755663692
O      0.0789663787     -0.2093792172      0.6950816617
Li      0.0062847518      0.2084668540     -1.1015864163
$end

$rem
job_type = freq
basis = def2-tzvppd
max_scf_cycles = 200
gen_scfman = true
xc_grid = 3
scf_algorithm = diis
resp_charges = true
symmetry = false
sym_ignore = true
method = wb97xv
solvent_method = smd
ideriv = 1
thresh = 14
$end

$smx
solvent other
$end
--------------------------------------------------------------
 ----------------------------------------------------------------
             Standard Nuclear Orientation (Angstroms)
    I     Atom           X                Y                Z
 ----------------------------------------------------------------
    1      O      -5.3896121047    -1.2884457100     0.4893663227
    2      C      -6.2176180820    -0.2611068540     0.8616031488
    3      C      -4.1094671668    -1.2113750997     1.1239252091
    4      O      -7.3794088010    -0.2854148377     0.4777351497
    5      O      -5.6380073203     0.6226972097     1.5795478624
    6      C      -3.8081625455     0.2068995948     1.5560808087
    7      H      -3.3763128099    -1.5437486548     0.3933933077
    8      H      -4.0993208729    -1.8814597157     1.9888426390
    9      H      -3.7435736245     0.4711031377     2.5968250653
   10      H      -3.6044640595     0.9547351565     0.8077890474
   11      O      -1.9093242017    -0.1560336816     1.7181552625
   12      C      -1.1962091485    -0.0162801623     0.6562082436
   13      O      -1.7282636601     0.3187885192    -0.4755663692
   14      O       0.0789663787    -0.2093792172     0.6950816617
   15      Li      0.0062847518     0.2084668540    -1.1015864163
 ----------------------------------------------------------------
 Nuclear Repulsion Energy =         561.27597380 hartrees
 There are       40 alpha and       40 beta electrons
 Requested basis set is def2-TZVPPD
 There are 174 shells and 478 basis functions

 Total QAlloc Memory Limit  96000 MB
 Mega-Array Size       188 MB
 MEM_STATIC part       192 MB
 
 Citation of the SMD model:
 Marenich, A.V.; Cramer, C.J.; Truhlar, D.G.
 J. Phys. Chem. B 2009, 113, 6378-6396.
 iSolventCode=           0
 Solvent: other                                                           
 
 vradii
            1           2           3           4           5           6
    1   2.2940000   1.8500000   1.8500000   2.2940000   2.2940000   1.8500000
            7           8           9          10          11          12
    1   1.2000000   1.2000000   1.2000000   1.2000000   2.2940000   1.8500000
           13          14          15
    1   2.2940000   2.2940000   2.1476001
 Changing PCM_VDW_RADII to SMD_RADIUS
 Discretize the solute cavity surface with Lebedev spheres
	Using 110 Lebedev grid points for each H atom
	Using 194 Lebedev grid points for other atoms
	Atomic van der Waals radii will be scaled by 1.20
 Remove points where switching function is < 1.0e-08
 Keep 1004 surface tesserae and discard 1570 interior tesserae
 Molecular Surface Area = 225.361 Angst**2

                       Distance Matrix (Angstroms)
             O (  1)   C (  2)   C (  3)   O (  4)   O (  5)   C (  6)
   C (  2)  1.370977
   C (  3)  1.430865  2.327257
   O (  4)  2.228340  1.223807  3.459405
   O (  5)  2.214196  1.277694  2.430607  2.251919
   C (  6)  2.423823  2.550844  1.512959  3.762845  1.876638
   H (  7)  2.031690  3.152365  1.087044  4.197058  3.348987  2.145485
   H (  8)  2.065175  2.895409  1.094166  3.948390  2.967470  2.152510
   H (  9)  3.201068  3.109344  2.265843  4.275764  2.155624  1.075697
   H ( 10)  2.884442  2.882662  2.246554  3.987119  2.200263  1.077354
   O ( 11)  3.860658  4.393873  2.511470  5.610455  3.811655  1.939994
   C ( 12)  4.385302  5.031568  3.183408  6.191627  4.581530  2.771621
   O ( 13)  4.113365  4.720022  3.251139  5.762750  4.427409  2.909654
   O ( 14)  5.577818  6.298998  4.327918  7.461929  5.844521  4.003046
   Li( 15)  5.821304  6.543056  4.889608  7.568794  6.262436  4.649001
             H (  7)   H (  8)   H (  9)   H ( 10)   O ( 11)   C ( 12)
   H (  8)  1.783886
   H (  9)  3.008259  2.455759
   H ( 10)  2.542872  3.111876  1.858467
   O ( 11)  2.415120  2.801152  2.128340  2.221728
   C ( 12)  2.674899  3.699036  3.239229  2.601065  1.286777
   O ( 13)  2.634426  4.066487  3.677535  2.360415  2.251811  1.294707
   O ( 14)  3.716250  4.682708  4.323366  3.864651  2.236700  1.290299
   Li( 15)  4.092333  5.547481  5.273392  4.152125  3.428318  2.141575
             O ( 13)   O ( 14)
   O ( 14)  2.217083
   Li( 15)  1.847358  1.846048
 
 A cutoff of  1.0D-14 yielded  13674 shell pairs
 There are    103486 function pairs (    132624 Cartesian)
 Smallest overlap matrix eigenvalue = 4.58E-06
 Guess from superposition of atomic densities
 Warning:  Energy on first SCF cycle will be non-variational
 SAD guess density has 79.000000 electrons

 -----------------------------------------------------------------------
  General SCF calculation program by
  Eric Jon Sundstrom, Paul Horn, Yuezhi Mao, Dmitri Zuev, Alec White,
  David Stuck, Shaama M.S., Shane Yost, Joonho Lee, David Small,
  Daniel Levine, Susi Lehtola, Hugh Burton, Evgeny Epifanovsky,
  Bang C. Huynh
 -----------------------------------------------------------------------
 Exchange:     0.1670 Hartree-Fock + 1.0000 wB97X-V + LR-HF
 Correlation:  1.0000 wB97X-V
 Using SG-3 standard quadrature grid
 Nonlocal Correlation:  VV10 with C = 0.0100 and b = 6.00 and scale = 1.00000
 Grid used for NLC:  SG-1 standard quadrature
 
 Citation of the SMD model:
 Marenich, A.V.; Cramer, C.J.; Truhlar, D.G.
 J. Phys. Chem. B 2009, 113, 6378-6396.
 iSolventCode=           0
 Solvent: other                                                           
 
 vradii
            1           2           3           4           5           6
    1   2.2940000   1.8500000   1.8500000   2.2940000   2.2940000   1.8500000
            7           8           9          10          11          12
    1   1.2000000   1.2000000   1.2000000   1.2000000   2.2940000   1.8500000
           13          14          15
    1   2.2940000   2.2940000   2.1476001
 using 32 threads for integral computing
 -------------------------------------------------------
 OpenMP Integral computing Module                
 Release: version 1.0, May 2013, Q-Chem Inc. Pittsburgh 
 -------------------------------------------------------
 using 32 threads for integral computing
 -------------------------------------------------------
 OpenMP Integral computing Module                
 Release: version 1.0, May 2013, Q-Chem Inc. Pittsburgh 
 -------------------------------------------------------
 -------------------------------------------------------
 OpenMP BLAS3 based DFT computing Module                
 Release: version 1.0, May 2013, Q-Chem Inc. Pittsburgh 
 -------------------------------------------------------
 -------------------------------------------------------
 OpenMP BLAS3 based DFT computing Module                
 Release: version 1.0, May 2013, Q-Chem Inc. Pittsburgh 
 -------------------------------------------------------
 -------------------------------------------------------
 OpenMP BLAS3 based DFT computing Module                
 Release: version 1.0, May 2013, Q-Chem Inc. Pittsburgh 
 -------------------------------------------------------
 A restricted SCF calculation will be
 performed using DIIS
 SCF converges when DIIS error is below 1.0e-08
 ---------------------------------------
  Cycle       Energy         DIIS error
 ---------------------------------------
    1    -615.4746858411      2.10e-02  
    2    -613.6087447767      4.17e-03  
    3    -613.6001123654      4.61e-03  
    4    -613.9799708232      2.83e-04  
    5    -613.9809994687      2.10e-04  
    6    -613.9818579681      3.65e-05  
    7    -613.9818985597      1.31e-05  
    8    -613.9819037785      5.08e-06  
    9    -613.9819045650      2.45e-06  
   10    -613.9819047501      5.75e-07  
   11    -613.9819047662      2.89e-07  
   12    -613.9819047688      1.06e-07  
   13    -613.9819047692      3.95e-08  
   14    -613.9819047693      9.90e-09  Convergence criterion met
 ---------------------------------------
 SCF time:   CPU 3915.82s  wall 150.00s 
(3)  G-ENP(liq) elect-nuc-pol free energy of system     -613.981904769 a.u.
(4)  G-CDS(liq) cavity-dispersion-solvent structure 
     free energy                                               -4.6539 kcal/mol
(6)  G-S(liq) free energy of system                     -613.989321260 a.u.
 SCF   energy in the final basis set =     -613.9819047693
 Total energy in the final basis set =     -613.9893212596
 
 --------------------------------------------------------------
 
                    Orbital Energies (a.u.)
 --------------------------------------------------------------
 
 Alpha MOs
 -- Occupied --
-19.2180 -19.1714 -19.1440 -19.1438 -19.1291 -19.1266 -10.3855 -10.3599
-10.3206 -10.3020  -2.0560  -1.2210  -1.1659  -1.1106  -1.0829  -1.0491
 -1.0299  -0.8683  -0.7505  -0.6489  -0.6058  -0.5999  -0.5697  -0.5584
 -0.5368  -0.5253  -0.5158  -0.5051  -0.4926  -0.4811  -0.4538  -0.4040
 -0.3753  -0.3739  -0.3660  -0.3545  -0.3480  -0.3390  -0.3349  -0.3098
 -- Virtual --
  0.0376   0.0529   0.0534   0.0596   0.0753   0.0929   0.0960   0.1120
  0.1154   0.1271   0.1327   0.1337   0.1396   0.1463   0.1514   0.1538
  0.1578   0.1601   0.1647   0.1724   0.1802   0.1850   0.1881   0.1952
  0.2055   0.2115   0.2122   0.2211   0.2278   0.2373   0.2449   0.2503
  0.2567   0.2666   0.2747   0.2758   0.2847   0.2966   0.2993   0.3042
  0.3178   0.3228   0.3296   0.3385   0.3525   0.3554   0.3613   0.3651
  0.3722   0.3835   0.3868   0.3888   0.3963   0.4004   0.4087   0.4150
  0.4176   0.4199   0.4316   0.4380   0.4401   0.4494   0.4538   0.4605
  0.4690   0.4760   0.4782   0.4863   0.4899   0.5007   0.5054   0.5088
  0.5138   0.5269   0.5311   0.5330   0.5400   0.5459   0.5483   0.5568
  0.5614   0.5694   0.5796   0.5820   0.5862   0.6015   0.6097   0.6173
  0.6214   0.6263   0.6306   0.6387   0.6476   0.6529   0.6590   0.6640
  0.6710   0.6759   0.6856   0.6923   0.6997   0.7111   0.7162   0.7240
  0.7301   0.7367   0.7421   0.7482   0.7650   0.7690   0.7722   0.7805
  0.7846   0.7928   0.8046   0.8105   0.8170   0.8222   0.8227   0.8385
  0.8387   0.8424   0.8616   0.8641   0.8694   0.8743   0.8853   0.8905
  0.8988   0.9205   0.9227   0.9319   0.9556   0.9614   0.9681   0.9874
  0.9967   0.9999   1.0118   1.0198   1.0272   1.0398   1.0468   1.0635
  1.0663   1.0864   1.0946   1.0955   1.1011   1.1094   1.1278   1.1361
  1.1550   1.1833   1.1854   1.2085   1.2151   1.2456   1.2507   1.2561
  1.2850   1.2867   1.2969   1.3063   1.3143   1.3221   1.3367   1.3394
  1.3550   1.3704   1.3855   1.4089   1.4174   1.4246   1.4365   1.4456
  1.4597   1.4808   1.5014   1.5110   1.5179   1.5432   1.5639   1.5703
  1.5910   1.6359   1.6367   1.6727   1.6838   1.6909   1.7055   1.7342
  1.7656   1.7703   1.8133   1.8392   1.8484   1.8848   1.9028   1.9105
  1.9325   1.9510   1.9624   1.9740   1.9946   2.0035   2.0185   2.0254
  2.0467   2.0581   2.0735   2.0822   2.1216   2.1503   2.1722   2.2130
  2.2262   2.2281   2.2499   2.2922   2.3076   2.3250   2.3422   2.3833
  2.3884   2.4073   2.4305   2.4505   2.4662   2.4735   2.4983   2.5055
  2.5158   2.5424   2.5592   2.5704   2.5839   2.6289   2.6465   2.7301
  2.7906   2.7968   2.8163   2.8314   2.9079   2.9186   2.9888   2.9971
  3.0167   3.0318   3.0521   3.0652   3.0722   3.0954   3.1100   3.1174
  3.1404   3.1497   3.1802   3.1852   3.2403   3.2728   3.2801   3.2990
  3.3123   3.3179   3.3317   3.3359   3.3685   3.3933   3.4106   3.4267
  3.4387   3.4471   3.4591   3.4713   3.4843   3.4874   3.5172   3.5338
  3.5420   3.5530   3.5745   3.5818   3.6005   3.6068   3.6184   3.6304
  3.6443   3.6492   3.6626   3.6688   3.6867   3.6898   3.7043   3.7152
  3.7202   3.7368   3.7854   3.8162   3.8492   3.8729   3.8849   3.8974
  3.9478   3.9660   4.0124   4.0530   4.0648   4.0967   4.1066   4.1297
  4.1954   4.2021   4.2399   4.2517   4.3014   4.3274   4.3573   4.4073
  4.4127   4.4669   4.4964   4.5161   4.6179   4.6352   4.6859   4.7325
  4.7546   4.7608   4.8133   4.8546   4.8821   4.9147   4.9275   4.9621
  4.9985   5.0118   5.0614   5.0825   5.1431   5.1656   5.2274   5.2688
  5.3084   5.3255   5.3292   5.3524   5.3663   5.3804   5.4007   5.4302
  5.4432   5.4594   5.4835   5.5058   5.5523   5.5781   5.6075   5.6232
  5.6407   5.6446   5.6519   5.6718   5.7035   5.7117   5.7447   5.7699
  5.7908   5.7977   5.8245   5.9050   5.9583   5.9744   5.9943   6.0014
  6.0423   6.0511   6.0860   6.1149   6.1420   6.2283   6.3052   6.3163
  6.3201   6.3370   6.3534   6.3724   6.4211   6.4506   6.4609   6.5035
  6.6073   6.6198   6.6551   6.6820   6.6991   6.7342   6.7570   6.7839
  6.8010   6.8366   6.8709   6.8861   6.9220   6.9405   7.0000   7.0139
  7.0245   7.0469   7.0679   7.0808   7.1183   7.1584   7.2203   7.3016
  7.3480   7.3952   7.4272   7.4750   7.5157   7.5295   7.5555   7.5916
  7.6136   7.6769   7.7141  14.9538  23.5943  23.7638  23.9121  24.0080
 44.2708  44.3804  44.4195  44.4621  44.4847  44.6091
 --------------------------------------------------------------
 
          Ground-State Mulliken Net Atomic Charges

     Atom                 Charge (a.u.)
  ----------------------------------------
      1 O                    -0.296224
      2 C                     0.416254
      3 C                     0.032502
      4 O                    -0.584959
      5 O                    -0.517878
      6 C                     0.314265
      7 H                     0.049087
      8 H                     0.043360
      9 H                     0.119257
     10 H                     0.137435
     11 O                    -0.561322
     12 C                     0.767726
     13 O                    -0.901524
     14 O                    -0.874125
     15 Li                    0.856145
  ----------------------------------------
  Sum of atomic charges =    -1.000000

  Building new vdw surfaces
         Merz-Kollman RESP Net Atomic Charges

     Atom                 Charge (a.u.)
  ----------------------------------------
      1 O                    -0.587365
      2 C                     1.033452
      3 C                     0.314861
      4 O                    -0.764594
      5 O                    -0.757608
      6 C                     0.183139
      7 H                     0.034894
      8 H                     0.034894
      9 H                     0.139238
     10 H                     0.139238
     11 O                    -0.795317
     12 C                     0.973692
     13 O                    -0.885911
     14 O                    -0.885911
     15 Li                    0.823298
  ----------------------------------------
  Sum of atomic charges =    -1.000000

  Related Dipole Moment =    26.1240 (X 24.9694 Y  0.7294 Z -7.6461)

 -----------------------------------------------------------------
                    Cartesian Multipole Moments
 -----------------------------------------------------------------
    Charge (ESU x 10^10)
                -4.8032
    Dipole Moment (Debye)
         X      24.9903      Y       0.7520      Z      -7.7731
       Tot      26.1821
    Quadrupole Moments (Debye-Ang)
        XX    -224.1529     XY       0.3110     YY     -63.1677
        XZ       9.0318     YZ      -2.2271     ZZ     -64.2740
    Octopole Moments (Debye-Ang^2)
       XXX    1823.8995    XXY      28.1630    XYY     237.0986
       YYY      40.9830    XXZ    -132.3640    XYZ      16.3312
       YYZ     -51.2758    XZZ     238.4551    YZZ      10.2560
       ZZZ    -171.1536
    Hexadecapole Moments (Debye-Ang^3)
      XXXX  -15375.6217   XXXY    -353.7360   XXYY   -1300.8149
      XYYY    -202.0974   YYYY    -225.3082   XXXZ    1226.9047
      XXYZ     -91.1433   XYYZ     205.6487   YYYZ      26.7086
      XXZZ   -1320.3690   XYZZ     -30.7261   YYZZ    -119.1253
      XZZZ     626.3725   YZZZ      23.9255   ZZZZ    -511.2859
 -----------------------------------------------------------------
 Calculating analytic gradient of the SCF energy
 Gradient of CDS energy
            1           2           3           4           5           6
    1   0.0009779  -0.0017138  -0.0000139  -0.0003416   0.0012300   0.0001039
    2  -0.0006434   0.0014122  -0.0012393  -0.0005213  -0.0001135   0.0007328
    3   0.0000448   0.0003563  -0.0003774  -0.0004307   0.0001032   0.0005082
            7           8           9          10          11          12
    1  -0.0000685   0.0000429   0.0000297   0.0000201  -0.0008207   0.0001758
    2   0.0004433   0.0002469  -0.0000216  -0.0001803  -0.0002146   0.0002166
    3  -0.0000209  -0.0000520  -0.0000722  -0.0001486   0.0000419   0.0007956
           13          14          15
    1  -0.0001373   0.0004908   0.0000246
    2  -0.0001618   0.0000390   0.0000049
    3  -0.0002258  -0.0004893  -0.0000332
 Gradient of SCF Energy
            1           2           3           4           5           6
    1  -0.0070828  -0.0167399   0.0402469   0.0326292  -0.0204736   0.0049740
    2   0.0049058   0.0109911  -0.0267726   0.0004563  -0.0124440   0.0337205
    3   0.0008518   0.0023450   0.0173659   0.0098368  -0.0116744   0.0017245
            7           8           9          10          11          12
    1  -0.0236685  -0.0016357  -0.0034280  -0.0150023   0.0197136  -0.0075175
    2   0.0112174   0.0173233  -0.0114748  -0.0276593   0.0003618  -0.0024323
    3   0.0110805  -0.0221883  -0.0371552   0.0232235  -0.0053410   0.0112856
           13          14          15
    1  -0.0046916  -0.0034806   0.0061569
    2   0.0005137   0.0006118   0.0006813
    3   0.0009283   0.0053211  -0.0076041
 Max gradient component =       4.025E-02
 RMS gradient           =       1.604E-02
 Computing fast CPCM-SWIG gradient
 Updating gradient with PCM contributions...
 -- total gradient after adding PCM contribution --
---------------------------------------------------
  Atom         X              Y              Z     
---------------------------------------------------
   1       0.000025      -0.000035       0.000002
   2      -0.000028       0.000081      -0.000015
   3       0.000031      -0.000007      -0.000012
   4      -0.000000      -0.000007       0.000011
   5      -0.000012      -0.000019       0.000018
   6      -0.000027       0.000019      -0.000011
   7      -0.000005       0.000000       0.000002
   8      -0.000002       0.000001       0.000009
   9      -0.000009       0.000011       0.000015
  10       0.000013      -0.000013      -0.000021
  11       0.000009      -0.000003       0.000002
  12       0.000001      -0.000009       0.000003
  13       0.000003      -0.000004      -0.000005
  14      -0.000003      -0.000006      -0.000001
  15       0.000003      -0.000010       0.000002
---------------------------------------------------
 Number of fixed atoms: 0
 Gradient time:  CPU 1023.10 s  wall 42.17 s
 ######################################################
 ######################################################
 # Starting finite difference calculation for IDERIV  #
 Finite diff step size:  1.88973e-03 a.u.
 ----------------------------------------------------------------
             Standard Nuclear Orientation (Angstroms)
    I     Atom           X                Y                Z
 ----------------------------------------------------------------
    1      O      -5.3886121047    -1.2884457100     0.4893663227
    2      C      -6.2176180820    -0.2611068540     0.8616031488
    3      C      -4.1094671668    -1.2113750997     1.1239252091
    4      O      -7.3794088010    -0.2854148377     0.4777351497
    5      O      -5.6380073203     0.6226972097     1.5795478624
    6      C      -3.8081625455     0.2068995948     1.5560808087
    7      H      -3.3763128099    -1.5437486548     0.3933933077
    8      H      -4.0993208729    -1.8814597157     1.9888426390
    9      H      -3.7435736245     0.4711031377     2.5968250653
   10      H      -3.6044640595     0.9547351565     0.8077890474
   11      O      -1.9093242017    -0.1560336816     1.7181552625
   12      C      -1.1962091485    -0.0162801623     0.6562082436
   13      O      -1.7282636601     0.3187885192    -0.4755663692
   14      O       0.0789663787    -0.2093792172     0.6950816617
   15      Li      0.0062847518     0.2084668540    -1.1015864163
 ----------------------------------------------------------------
 Nuclear Repulsion Energy =         561.28354792 hartrees
 There are       40 alpha and       40 beta electrons
 Discretize the solute cavity surface with Lebedev spheres
	Using 110 Lebedev grid points for each H atom
	Using 194 Lebedev grid points for other atoms
	Atomic van der Waals radii will be scaled by 1.20
 Remove points where switching function is < 1.0e-08
 Keep 1004 surface tesserae and discard 1570 interior tesserae
 Molecular Surface Area = 225.356 Angst**2

                       Distance Matrix (Angstroms)
             O (  1)   C (  2)   C (  3)   O (  4)   O (  5)   C (  6)
   C (  2)  1.371582
   C (  3)  1.429971  2.327257
   O (  4)  2.229233  1.223807  3.459405
   O (  5)  2.214308  1.277694  2.430607  2.251919
   C (  6)  2.423171  2.550844  1.512959  3.762845  1.876638
   H (  7)  2.030699  3.152365  1.087044  4.197058  3.348987  2.145485
   H (  8)  2.064550  2.895409  1.094166  3.948390  2.967470  2.152510
   H (  9)  3.200554  3.109344  2.265843  4.275764  2.155624  1.075697
   H ( 10)  2.883823  2.882662  2.246554  3.987119  2.200263  1.077354
   O ( 11)  3.859757  4.393873  2.511470  5.610455  3.811655  1.939994
   C ( 12)  4.384345  5.031568  3.183408  6.191627  4.581530  2.771621
   O ( 13)  4.112475  4.720022  3.251139  5.762750  4.427409  2.909654
   O ( 14)  5.576838  6.298998  4.327918  7.461929  5.844521  4.003046
   Li( 15)  5.820377  6.543056  4.889608  7.568794  6.262436  4.649001
             H (  7)   H (  8)   H (  9)   H ( 10)   O ( 11)   C ( 12)
   H (  8)  1.783886
   H (  9)  3.008259  2.455759
   H ( 10)  2.542872  3.111876  1.858467
   O ( 11)  2.415120  2.801152  2.128340  2.221728
   C ( 12)  2.674899  3.699036  3.239229  2.601065  1.286777
   O ( 13)  2.634426  4.066487  3.677535  2.360415  2.251811  1.294707
   O ( 14)  3.716250  4.682708  4.323366  3.864651  2.236700  1.290299
   Li( 15)  4.092333  5.547481  5.273392  4.152125  3.428318  2.141575
             O ( 13)   O ( 14)
   O ( 14)  2.217083
   Li( 15)  1.847358  1.846048
 
 Requested basis set is def2-TZVPPD
 There are 174 shells and 478 basis functions
 A cutoff of  1.0D-14 yielded  13674 shell pairs
 There are    103486 function pairs (    132624 Cartesian)
 Smallest overlap matrix eigenvalue = 4.58E-06
 Guess MOs from SCF MO coefficient file

 -----------------------------------------------------------------------
  General SCF calculation program by
  Eric Jon Sundstrom, Paul Horn, Yuezhi Mao, Dmitri Zuev, Alec White,
  David Stuck, Shaama M.S., Shane Yost, Joonho Lee, David Small,
  Daniel Levine, Susi Lehtola, Hugh Burton, Evgeny Epifanovsky,
  Bang C. Huynh
 -----------------------------------------------------------------------
 Exchange:     0.1670 Hartree-Fock + 1.0000 wB97X-V + LR-HF
 Correlation:  1.0000 wB97X-V
 Using SG-3 standard quadrature grid
 Nonlocal Correlation:  VV10 with C = 0.0100 and b = 6.00 and scale = 1.00000
 Grid used for NLC:  SG-1 standard quadrature
 
 Citation of the SMD model:
 Marenich, A.V.; Cramer, C.J.; Truhlar, D.G.
 J. Phys. Chem. B 2009, 113, 6378-6396.
 iSolventCode=           0
 Solvent: other                                                           
 
 vradii
            1           2           3           4           5           6
    1   2.2940000   1.8500000   1.8500000   2.2940000   2.2940000   1.8500000
            7           8           9          10          11          12
    1   1.2000000   1.2000000   1.2000000   1.2000000   2.2940000   1.8500000
           13          14          15
    1   2.2940000   2.2940000   2.1476001
 using 32 threads for integral computing
 -------------------------------------------------------
 OpenMP Integral computing Module                
 Release: version 1.0, May 2013, Q-Chem Inc. Pittsburgh 
 -------------------------------------------------------
 using 32 threads for integral computing
 -------------------------------------------------------
 OpenMP Integral computing Module                
 Release: version 1.0, May 2013, Q-Chem Inc. Pittsburgh 
 -------------------------------------------------------
 -------------------------------------------------------
 OpenMP BLAS3 based DFT computing Module                
 Release: version 1.0, May 2013, Q-Chem Inc. Pittsburgh 
 -------------------------------------------------------
 -------------------------------------------------------
 OpenMP BLAS3 based DFT computing Module                
 Release: version 1.0, May 2013, Q-Chem Inc. Pittsburgh 
 -------------------------------------------------------
 -------------------------------------------------------
 OpenMP BLAS3 based DFT computing Module                
 Release: version 1.0, May 2013, Q-Chem Inc. Pittsburgh 
 -------------------------------------------------------
 A restricted SCF calculation will be
 performed using Roothaan-Hall, DIIS
 SCF converges when DIIS error is below 1.0e-08
 ---------------------------------------
  Cycle       Energy         DIIS error
 ---------------------------------------
    1    -604.1114390041      1.80e-04  Roothaan Step
 ---------------------------------------
  Cycle       Energy         DIIS error
 ---------------------------------------
    1    -613.9800856932      1.91e-04  
    2    -613.9814982643      1.31e-04  
    3    -613.9818132784      5.87e-05  
    4    -613.9818922720      1.63e-05  
    5    -613.9819035933      6.99e-06  
    6    -613.9819053833      3.05e-06  
    7    -613.9819057469      1.16e-06  
    8    -613.9819057987      3.32e-07  
    9    -613.9819058052      1.60e-07  
   10    -613.9819058063      4.37e-08  
   11    -613.9819058064      2.00e-08  
   12    -613.9819058064      7.74e-09  Convergence criterion met
 ---------------------------------------
 SCF time:   CPU 3857.46s  wall 147.00s 
(3)  G-ENP(liq) elect-nuc-pol free energy of system     -613.981905806 a.u.
(4)  G-CDS(liq) cavity-dispersion-solvent structure 
     free energy                                               -4.6528 kcal/mol
(6)  G-S(liq) free energy of system                     -613.989320445 a.u.
 SCF   energy in the final basis set =     -613.9819058064
 Total energy in the final basis set =     -613.9893204450
 
 --------------------------------------------------------------
 
                    Orbital Energies (a.u.)
 --------------------------------------------------------------
 
 Alpha MOs
 -- Occupied --
-19.2180 -19.1714 -19.1440 -19.1440 -19.1291 -19.1266 -10.3856 -10.3599
-10.3205 -10.3020  -2.0560  -1.2210  -1.1659  -1.1108  -1.0830  -1.0491
 -1.0299  -0.8683  -0.7505  -0.6489  -0.6058  -0.5999  -0.5697  -0.5584
 -0.5368  -0.5253  -0.5158  -0.5050  -0.4927  -0.4811  -0.4537  -0.4040
 -0.3753  -0.3739  -0.3660  -0.3545  -0.3480  -0.3390  -0.3349  -0.3098
 -- Virtual --
  0.0376   0.0529   0.0534   0.0596   0.0753   0.0929   0.0960   0.1120
  0.1154   0.1271   0.1327   0.1337   0.1396   0.1464   0.1514   0.1538
  0.1578   0.1601   0.1647   0.1724   0.1802   0.1850   0.1881   0.1952
  0.2055   0.2115   0.2122   0.2211   0.2278   0.2373   0.2449   0.2504
  0.2567   0.2666   0.2747   0.2758   0.2847   0.2966   0.2993   0.3042
  0.3178   0.3229   0.3296   0.3386   0.3525   0.3554   0.3613   0.3651
  0.3722   0.3835   0.3868   0.3888   0.3963   0.4004   0.4086   0.4150
  0.4176   0.4199   0.4316   0.4380   0.4401   0.4494   0.4538   0.4605
  0.4690   0.4760   0.4782   0.4863   0.4899   0.5007   0.5054   0.5088
  0.5138   0.5269   0.5311   0.5330   0.5400   0.5459   0.5483   0.5568
  0.5614   0.5694   0.5796   0.5820   0.5861   0.6014   0.6097   0.6172
  0.6214   0.6263   0.6306   0.6387   0.6476   0.6529   0.6590   0.6640
  0.6710   0.6759   0.6856   0.6922   0.6997   0.7111   0.7162   0.7240
  0.7301   0.7367   0.7422   0.7482   0.7650   0.7690   0.7722   0.7805
  0.7846   0.7928   0.8047   0.8105   0.8170   0.8223   0.8227   0.8385
  0.8387   0.8424   0.8616   0.8641   0.8694   0.8743   0.8853   0.8906
  0.8989   0.9205   0.9227   0.9319   0.9556   0.9614   0.9681   0.9874
  0.9967   1.0000   1.0118   1.0199   1.0272   1.0398   1.0467   1.0635
  1.0663   1.0864   1.0947   1.0955   1.1011   1.1094   1.1278   1.1361
  1.1550   1.1834   1.1855   1.2086   1.2152   1.2455   1.2507   1.2561
  1.2850   1.2868   1.2969   1.3063   1.3143   1.3221   1.3366   1.3395
  1.3550   1.3704   1.3855   1.4089   1.4175   1.4246   1.4365   1.4456
  1.4597   1.4808   1.5014   1.5110   1.5180   1.5432   1.5639   1.5705
  1.5910   1.6359   1.6367   1.6727   1.6839   1.6909   1.7056   1.7341
  1.7656   1.7703   1.8134   1.8392   1.8484   1.8848   1.9028   1.9105
  1.9325   1.9511   1.9624   1.9740   1.9946   2.0035   2.0185   2.0255
  2.0467   2.0582   2.0736   2.0822   2.1217   2.1504   2.1723   2.2130
  2.2262   2.2280   2.2500   2.2922   2.3077   2.3250   2.3422   2.3832
  2.3883   2.4074   2.4304   2.4505   2.4662   2.4734   2.4983   2.5053
  2.5159   2.5424   2.5594   2.5703   2.5841   2.6291   2.6466   2.7301
  2.7906   2.7969   2.8163   2.8314   2.9079   2.9188   2.9889   2.9974
  3.0169   3.0318   3.0521   3.0652   3.0722   3.0954   3.1100   3.1174
  3.1405   3.1497   3.1803   3.1853   3.2404   3.2728   3.2802   3.2990
  3.3123   3.3180   3.3317   3.3360   3.3685   3.3934   3.4107   3.4267
  3.4386   3.4471   3.4591   3.4714   3.4842   3.4874   3.5171   3.5338
  3.5421   3.5529   3.5745   3.5818   3.6004   3.6067   3.6184   3.6303
  3.6442   3.6493   3.6626   3.6688   3.6867   3.6897   3.7043   3.7152
  3.7202   3.7368   3.7855   3.8163   3.8493   3.8728   3.8850   3.8976
  3.9479   3.9660   4.0124   4.0532   4.0650   4.0968   4.1067   4.1297
  4.1955   4.2022   4.2399   4.2518   4.3015   4.3276   4.3574   4.4073
  4.4127   4.4670   4.4965   4.5163   4.6179   4.6352   4.6858   4.7324
  4.7546   4.7608   4.8133   4.8547   4.8822   4.9147   4.9275   4.9620
  4.9985   5.0121   5.0615   5.0823   5.1433   5.1661   5.2275   5.2688
  5.3084   5.3255   5.3292   5.3524   5.3662   5.3803   5.4008   5.4301
  5.4432   5.4595   5.4836   5.5059   5.5523   5.5781   5.6075   5.6231
  5.6409   5.6445   5.6519   5.6719   5.7034   5.7118   5.7447   5.7703
  5.7908   5.7978   5.8245   5.9051   5.9584   5.9745   5.9943   6.0016
  6.0422   6.0511   6.0865   6.1155   6.1420   6.2289   6.3054   6.3163
  6.3201   6.3370   6.3535   6.3724   6.4209   6.4505   6.4609   6.5035
  6.6073   6.6198   6.6551   6.6819   6.6990   6.7341   6.7570   6.7839
  6.8010   6.8367   6.8709   6.8861   6.9222   6.9406   7.0000   7.0138
  7.0245   7.0468   7.0679   7.0808   7.1183   7.1589   7.2201   7.3015
  7.3480   7.3952   7.4273   7.4750   7.5157   7.5295   7.5557   7.5917
  7.6136   7.6763   7.7138  14.9538  23.5955  23.7640  23.9122  24.0067
 44.2708  44.3803  44.4195  44.4618  44.4848  44.6098
 --------------------------------------------------------------
 
          Ground-State Mulliken Net Atomic Charges

     Atom                 Charge (a.u.)
  ----------------------------------------
      1 O                    -0.296262
      2 C                     0.415953
      3 C                     0.032681
      4 O                    -0.584671
      5 O                    -0.517824
      6 C                     0.314174
      7 H                     0.049062
      8 H                     0.043333
      9 H                     0.119278
     10 H                     0.137404
     11 O                    -0.561306
     12 C                     0.767704
     13 O                    -0.901536
     14 O                    -0.874134
     15 Li                    0.856143
  ----------------------------------------
  Sum of atomic charges =    -1.000000

  Building new vdw surfaces
         Merz-Kollman RESP Net Atomic Charges

     Atom                 Charge (a.u.)
  ----------------------------------------
      1 O                    -0.587560
      2 C                     1.033055
      3 C                     0.315577
      4 O                    -0.764211
      5 O                    -0.757374
      6 C                     0.182998
      7 H                     0.034636
      8 H                     0.034636
      9 H                     0.139236
     10 H                     0.139236
     11 O                    -0.795514
     12 C                     0.973834
     13 O                    -0.885899
     14 O                    -0.885899
     15 Li                    0.823248
  ----------------------------------------
  Sum of atomic charges =    -1.000000

  Related Dipole Moment =    26.1173 (X 24.9622 Y  0.7313 Z -7.6466)

 -----------------------------------------------------------------
                    Cartesian Multipole Moments
 -----------------------------------------------------------------
    Charge (ESU x 10^10)
                -4.8032
    Dipole Moment (Debye)
         X      24.9830      Y       0.7542      Z      -7.7738
       Tot      26.1754
    Quadrupole Moments (Debye-Ang)
        XX    -224.0754     XY       0.3038     YY     -63.1709
        XZ       9.0298     YZ      -2.2242     ZZ     -64.2768
    Octopole Moments (Debye-Ang^2)
       XXX    1823.2122    XXY      28.1829    XYY     237.0981
       YYY      40.9917    XXZ    -132.3260    XYZ      16.3204
       YYZ     -51.2811    XZZ     238.4521    YZZ      10.2625
       ZZZ    -171.1621
    Hexadecapole Moments (Debye-Ang^3)
      XXXX  -15369.8396   XXXY    -353.7357   XXYY   -1300.7283
      XYYY    -202.1079   YYYY    -225.3257   XXXZ    1226.5298
      XXYZ     -91.1039   XYYZ     205.6610   YYYZ      26.7217
      XXZZ   -1320.2712   XYZZ     -30.7453   YYZZ    -119.1391
      XZZZ     626.3840   YZZZ      23.9416   ZZZZ    -511.3126
 -----------------------------------------------------------------
 Calculating analytic gradient of the SCF energy
 Gradient of CDS energy
            1           2           3           4           5           6
    1   0.0009819  -0.0017173  -0.0000137  -0.0003419   0.0012300   0.0001039
    2  -0.0006463   0.0014139  -0.0012390  -0.0005203  -0.0001135   0.0007327
    3   0.0000437   0.0003568  -0.0003763  -0.0004303   0.0001032   0.0005080
            7           8           9          10          11          12
    1  -0.0000689   0.0000431   0.0000297   0.0000201  -0.0008207   0.0001758
    2   0.0004432   0.0002470  -0.0000216  -0.0001803  -0.0002146   0.0002166
    3  -0.0000214  -0.0000520  -0.0000722  -0.0001486   0.0000419   0.0007956
           13          14          15
    1  -0.0001373   0.0004908   0.0000246
    2  -0.0001618   0.0000390   0.0000049
    3  -0.0002258  -0.0004893  -0.0000332
 Gradient of SCF Energy
            1           2           3           4           5           6
    1  -0.0063697  -0.0169596   0.0399736   0.0325094  -0.0204351   0.0049206
    2   0.0047106   0.0111053  -0.0267928   0.0005413  -0.0124166   0.0337149
    3   0.0009959   0.0023567   0.0172553   0.0098441  -0.0116565   0.0017118
            7           8           9          10          11          12
    1  -0.0237178  -0.0016634  -0.0034340  -0.0150046   0.0197128  -0.0075135
    2   0.0112164   0.0173345  -0.0114839  -0.0276565   0.0003520  -0.0024295
    3   0.0110529  -0.0222117  -0.0371635   0.0232288  -0.0053429   0.0112806
           13          14          15
    1  -0.0046916  -0.0034857   0.0061585
    2   0.0005097   0.0006119   0.0006825
    3   0.0009312   0.0053229  -0.0076056
 Max gradient component =       3.997E-02
 RMS gradient           =       1.602E-02
 Computing fast CPCM-SWIG gradient
 Updating gradient with PCM contributions...
 -- total gradient after adding PCM contribution --
---------------------------------------------------
  Atom         X              Y              Z     
---------------------------------------------------
   1       0.000837      -0.000221       0.000178
   2      -0.000238       0.000165       0.000000
   3      -0.000287      -0.000033      -0.000133
   4      -0.000164       0.000102       0.000015
   5       0.000027       0.000022       0.000038
   6      -0.000093       0.000018      -0.000035
   7      -0.000069      -0.000005      -0.000036
   8      -0.000031       0.000005      -0.000021
   9      -0.000009       0.000005       0.000015
  10       0.000016      -0.000016      -0.000019
  11       0.000002      -0.000014       0.000002
  12       0.000011      -0.000009      -0.000006
  13       0.000001      -0.000006      -0.000002
  14      -0.000007      -0.000005       0.000001
  15       0.000004      -0.000010       0.000001
---------------------------------------------------
 Number of fixed atoms: 0
 Gradient time:  CPU 1036.12 s  wall 43.15 s
 ----------------------------------------------------------------
             Standard Nuclear Orientation (Angstroms)
    I     Atom           X                Y                Z
 ----------------------------------------------------------------
    1      O      -5.3906121047    -1.2884457100     0.4893663227
    2      C      -6.2176180820    -0.2611068540     0.8616031488
    3      C      -4.1094671668    -1.2113750997     1.1239252091
    4      O      -7.3794088010    -0.2854148377     0.4777351497
    5      O      -5.6380073203     0.6226972097     1.5795478624
    6      C      -3.8081625455     0.2068995948     1.5560808087
    7      H      -3.3763128099    -1.5437486548     0.3933933077
    8      H      -4.0993208729    -1.8814597157     1.9888426390
    9      H      -3.7435736245     0.4711031377     2.5968250653
   10      H      -3.6044640595     0.9547351565     0.8077890474
   11      O      -1.9093242017    -0.1560336816     1.7181552625
   12      C      -1.1962091485    -0.0162801623     0.6562082436
   13      O      -1.7282636601     0.3187885192    -0.4755663692
   14      O       0.0789663787    -0.2093792172     0.6950816617
   15      Li      0.0062847518     0.2084668540    -1.1015864163
 ----------------------------------------------------------------
 Nuclear Repulsion Energy =         561.26841809 hartrees
 There are       40 alpha and       40 beta electrons
 Discretize the solute cavity surface with Lebedev spheres
	Using 110 Lebedev grid points for each H atom
	Using 194 Lebedev grid points for other atoms
	Atomic van der Waals radii will be scaled by 1.20
 Remove points where switching function is < 1.0e-08
 Keep 1004 surface tesserae and discard 1570 interior tesserae
 Molecular Surface Area = 225.365 Angst**2

                       Distance Matrix (Angstroms)
             O (  1)   C (  2)   C (  3)   O (  4)   O (  5)   C (  6)
   C (  2)  1.370374
   C (  3)  1.431760  2.327257
   O (  4)  2.227447  1.223807  3.459405
   O (  5)  2.214084  1.277694  2.430607  2.251919
   C (  6)  2.424476  2.550844  1.512959  3.762845  1.876638
   H (  7)  2.032681  3.152365  1.087044  4.197058  3.348987  2.145485
   H (  8)  2.065800  2.895409  1.094166  3.948390  2.967470  2.152510
   H (  9)  3.201582  3.109344  2.265843  4.275764  2.155624  1.075697
   H ( 10)  2.885061  2.882662  2.246554  3.987119  2.200263  1.077354
   O ( 11)  3.861560  4.393873  2.511470  5.610455  3.811655  1.939994
   C ( 12)  4.386258  5.031568  3.183408  6.191627  4.581530  2.771621
   O ( 13)  4.114255  4.720022  3.251139  5.762750  4.427409  2.909654
   O ( 14)  5.578798  6.298998  4.327918  7.461929  5.844521  4.003046
   Li( 15)  5.822231  6.543056  4.889608  7.568794  6.262436  4.649001
             H (  7)   H (  8)   H (  9)   H ( 10)   O ( 11)   C ( 12)
   H (  8)  1.783886
   H (  9)  3.008259  2.455759
   H ( 10)  2.542872  3.111876  1.858467
   O ( 11)  2.415120  2.801152  2.128340  2.221728
   C ( 12)  2.674899  3.699036  3.239229  2.601065  1.286777
   O ( 13)  2.634426  4.066487  3.677535  2.360415  2.251811  1.294707
   O ( 14)  3.716250  4.682708  4.323366  3.864651  2.236700  1.290299
   Li( 15)  4.092333  5.547481  5.273392  4.152125  3.428318  2.141575
             O ( 13)   O ( 14)
   O ( 14)  2.217083
   Li( 15)  1.847358  1.846048
 
 Requested basis set is def2-TZVPPD
 There are 174 shells and 478 basis functions
 A cutoff of  1.0D-14 yielded  13674 shell pairs
 There are    103486 function pairs (    132624 Cartesian)
 Smallest overlap matrix eigenvalue = 4.58E-06
 Guess MOs from SCF MO coefficient file

 -----------------------------------------------------------------------
  General SCF calculation program by
  Eric Jon Sundstrom, Paul Horn, Yuezhi Mao, Dmitri Zuev, Alec White,
  David Stuck, Shaama M.S., Shane Yost, Joonho Lee, David Small,
  Daniel Levine, Susi Lehtola, Hugh Burton, Evgeny Epifanovsky,
  Bang C. Huynh
 -----------------------------------------------------------------------
 Exchange:     0.1670 Hartree-Fock + 1.0000 wB97X-V + LR-HF
 Correlation:  1.0000 wB97X-V
 Using SG-3 standard quadrature grid
 Nonlocal Correlation:  VV10 with C = 0.0100 and b = 6.00 and scale = 1.00000
 Grid used for NLC:  SG-1 standard quadrature
 
 Citation of the SMD model:
 Marenich, A.V.; Cramer, C.J.; Truhlar, D.G.
 J. Phys. Chem. B 2009, 113, 6378-6396.
 iSolventCode=           0
 Solvent: other                                                           
 
 vradii
            1           2           3           4           5           6
    1   2.2940000   1.8500000   1.8500000   2.2940000   2.2940000   1.8500000
            7           8           9          10          11          12
    1   1.2000000   1.2000000   1.2000000   1.2000000   2.2940000   1.8500000
           13          14          15
    1   2.2940000   2.2940000   2.1476001
 using 32 threads for integral computing
 -------------------------------------------------------
 OpenMP Integral computing Module                
 Release: version 1.0, May 2013, Q-Chem Inc. Pittsburgh 
 -------------------------------------------------------
 using 32 threads for integral computing
 -------------------------------------------------------
 OpenMP Integral computing Module                
 Release: version 1.0, May 2013, Q-Chem Inc. Pittsburgh 
 -------------------------------------------------------
 -------------------------------------------------------
 OpenMP BLAS3 based DFT computing Module                
 Release: version 1.0, May 2013, Q-Chem Inc. Pittsburgh 
 -------------------------------------------------------
 -------------------------------------------------------
 OpenMP BLAS3 based DFT computing Module                
 Release: version 1.0, May 2013, Q-Chem Inc. Pittsburgh 
 -------------------------------------------------------
 -------------------------------------------------------
 OpenMP BLAS3 based DFT computing Module                
 Release: version 1.0, May 2013, Q-Chem Inc. Pittsburgh 
 -------------------------------------------------------
 A restricted SCF calculation will be
 performed using Roothaan-Hall, DIIS
 SCF converges when DIIS error is below 1.0e-08
 ---------------------------------------
  Cycle       Energy         DIIS error
 ---------------------------------------
    1    -604.1107676869      1.80e-04  Roothaan Step
 ---------------------------------------
  Cycle       Energy         DIIS error
 ---------------------------------------
    1    -613.9800766016      1.91e-04  
    2    -613.9814902351      1.32e-04  
    3    -613.9818093715      5.87e-05  
    4    -613.9818886486      1.63e-05  
    5    -613.9818999777      7.06e-06  
    6    -613.9819017814      3.06e-06  
    7    -613.9819021474      1.16e-06  
    8    -613.9819021986      3.34e-07  
    9    -613.9819022051      1.60e-07  
   10    -613.9819022062      4.31e-08  
   11    -613.9819022063      2.00e-08  
   12    -613.9819022063      7.76e-09  Convergence criterion met
 ---------------------------------------
 SCF time:   CPU 3876.69s  wall 147.00s 
(3)  G-ENP(liq) elect-nuc-pol free energy of system     -613.981902206 a.u.
(4)  G-CDS(liq) cavity-dispersion-solvent structure 
     free energy                                               -4.6551 kcal/mol
(6)  G-S(liq) free energy of system                     -613.989320541 a.u.
 SCF   energy in the final basis set =     -613.9819022063
 Total energy in the final basis set =     -613.9893205409
 
 --------------------------------------------------------------
 
                    Orbital Energies (a.u.)
 --------------------------------------------------------------
 
 Alpha MOs
 -- Occupied --
-19.2181 -19.1713 -19.1440 -19.1437 -19.1291 -19.1267 -10.3854 -10.3599
-10.3206 -10.3021  -2.0560  -1.2211  -1.1659  -1.1105  -1.0829  -1.0492
 -1.0299  -0.8684  -0.7505  -0.6489  -0.6058  -0.5999  -0.5697  -0.5584
 -0.5369  -0.5253  -0.5158  -0.5051  -0.4926  -0.4811  -0.4538  -0.4040
 -0.3753  -0.3740  -0.3660  -0.3544  -0.3481  -0.3391  -0.3349  -0.3098
 -- Virtual --
  0.0376   0.0529   0.0534   0.0596   0.0753   0.0929   0.0960   0.1120
  0.1154   0.1271   0.1327   0.1337   0.1396   0.1463   0.1514   0.1537
  0.1578   0.1601   0.1647   0.1724   0.1802   0.1850   0.1882   0.1952
  0.2055   0.2115   0.2122   0.2211   0.2277   0.2373   0.2449   0.2503
  0.2567   0.2666   0.2747   0.2757   0.2847   0.2966   0.2992   0.3042
  0.3178   0.3228   0.3295   0.3385   0.3525   0.3554   0.3613   0.3651
  0.3722   0.3835   0.3867   0.3888   0.3962   0.4004   0.4087   0.4150
  0.4176   0.4199   0.4316   0.4380   0.4401   0.4494   0.4538   0.4605
  0.4690   0.4759   0.4782   0.4863   0.4899   0.5007   0.5054   0.5089
  0.5138   0.5269   0.5311   0.5330   0.5400   0.5460   0.5483   0.5568
  0.5614   0.5694   0.5796   0.5820   0.5862   0.6015   0.6097   0.6173
  0.6214   0.6263   0.6306   0.6387   0.6476   0.6529   0.6590   0.6640
  0.6710   0.6759   0.6856   0.6923   0.6997   0.7111   0.7162   0.7240
  0.7301   0.7367   0.7421   0.7482   0.7651   0.7690   0.7722   0.7805
  0.7846   0.7928   0.8046   0.8105   0.8170   0.8222   0.8227   0.8385
  0.8386   0.8424   0.8616   0.8640   0.8694   0.8743   0.8853   0.8905
  0.8988   0.9205   0.9226   0.9319   0.9556   0.9614   0.9681   0.9874
  0.9967   0.9999   1.0118   1.0198   1.0272   1.0398   1.0468   1.0635
  1.0663   1.0864   1.0946   1.0954   1.1011   1.1094   1.1278   1.1361
  1.1549   1.1833   1.1854   1.2085   1.2150   1.2456   1.2507   1.2560
  1.2850   1.2867   1.2969   1.3064   1.3144   1.3221   1.3367   1.3394
  1.3550   1.3704   1.3856   1.4089   1.4174   1.4247   1.4366   1.4455
  1.4597   1.4807   1.5014   1.5111   1.5179   1.5432   1.5638   1.5702
  1.5910   1.6359   1.6367   1.6727   1.6838   1.6908   1.7054   1.7342
  1.7655   1.7703   1.8133   1.8392   1.8484   1.8848   1.9028   1.9105
  1.9326   1.9510   1.9624   1.9739   1.9945   2.0036   2.0185   2.0254
  2.0467   2.0581   2.0734   2.0821   2.1215   2.1502   2.1721   2.2130
  2.2262   2.2281   2.2498   2.2922   2.3076   2.3249   2.3421   2.3833
  2.3885   2.4073   2.4306   2.4505   2.4662   2.4735   2.4983   2.5056
  2.5156   2.5424   2.5590   2.5704   2.5837   2.6287   2.6463   2.7301
  2.7907   2.7966   2.8164   2.8313   2.9079   2.9184   2.9888   2.9968
  3.0165   3.0318   3.0521   3.0651   3.0722   3.0955   3.1101   3.1175
  3.1404   3.1496   3.1801   3.1852   3.2402   3.2729   3.2801   3.2990
  3.3122   3.3179   3.3318   3.3358   3.3685   3.3932   3.4106   3.4267
  3.4388   3.4470   3.4592   3.4713   3.4843   3.4874   3.5172   3.5338
  3.5420   3.5530   3.5745   3.5819   3.6006   3.6069   3.6184   3.6305
  3.6443   3.6492   3.6626   3.6688   3.6868   3.6898   3.7043   3.7152
  3.7201   3.7368   3.7852   3.8161   3.8491   3.8729   3.8849   3.8972
  3.9476   3.9660   4.0124   4.0528   4.0647   4.0967   4.1065   4.1297
  4.1954   4.2021   4.2399   4.2517   4.3012   4.3273   4.3572   4.4072
  4.4127   4.4668   4.4963   4.5159   4.6179   4.6352   4.6860   4.7326
  4.7545   4.7607   4.8133   4.8545   4.8819   4.9146   4.9275   4.9621
  4.9984   5.0116   5.0614   5.0826   5.1429   5.1652   5.2273   5.2687
  5.3084   5.3255   5.3292   5.3524   5.3663   5.3804   5.4006   5.4302
  5.4432   5.4594   5.4835   5.5058   5.5523   5.5781   5.6074   5.6233
  5.6406   5.6446   5.6519   5.6718   5.7035   5.7117   5.7447   5.7696
  5.7908   5.7975   5.8245   5.9049   5.9581   5.9744   5.9942   6.0012
  6.0424   6.0512   6.0856   6.1143   6.1420   6.2277   6.3051   6.3162
  6.3201   6.3370   6.3533   6.3724   6.4214   6.4508   6.4609   6.5035
  6.6072   6.6198   6.6550   6.6822   6.6992   6.7344   6.7569   6.7839
  6.8010   6.8366   6.8710   6.8861   6.9219   6.9404   7.0000   7.0139
  7.0245   7.0469   7.0679   7.0808   7.1184   7.1579   7.2205   7.3018
  7.3480   7.3951   7.4270   7.4750   7.5157   7.5295   7.5554   7.5915
  7.6136   7.6775   7.7143  14.9538  23.5930  23.7636  23.9121  24.0094
 44.2708  44.3805  44.4195  44.4623  44.4846  44.6084
 --------------------------------------------------------------
 
          Ground-State Mulliken Net Atomic Charges

     Atom                 Charge (a.u.)
  ----------------------------------------
      1 O                    -0.296188
      2 C                     0.416557
      3 C                     0.032328
      4 O                    -0.585247
      5 O                    -0.517931
      6 C                     0.314356
      7 H                     0.049110
      8 H                     0.043386
      9 H                     0.119234
     10 H                     0.137466
     11 O                    -0.561338
     12 C                     0.767748
     13 O                    -0.901512
     14 O                    -0.874116
     15 Li                    0.856147
  ----------------------------------------
  Sum of atomic charges =    -1.000000

  Building new vdw surfaces
         Merz-Kollman RESP Net Atomic Charges

     Atom                 Charge (a.u.)
  ----------------------------------------
      1 O                    -0.587170
      2 C                     1.033845
      3 C                     0.314118
      4 O                    -0.764973
      5 O                    -0.757845
      6 C                     0.183328
      7 H                     0.035156
      8 H                     0.035156
      9 H                     0.139227
     10 H                     0.139227
     11 O                    -0.795124
     12 C                     0.973547
     13 O                    -0.885920
     14 O                    -0.885920
     15 Li                    0.823348
  ----------------------------------------
  Sum of atomic charges =    -1.000000

  Related Dipole Moment =    26.1307 (X 24.9766 Y  0.7275 Z -7.6455)

 -----------------------------------------------------------------
                    Cartesian Multipole Moments
 -----------------------------------------------------------------
    Charge (ESU x 10^10)
                -4.8032
    Dipole Moment (Debye)
         X      24.9976      Y       0.7499      Z      -7.7723
       Tot      26.1888
    Quadrupole Moments (Debye-Ang)
        XX    -224.2304     XY       0.3182     YY     -63.1644
        XZ       9.0337     YZ      -2.2300     ZZ     -64.2711
    Octopole Moments (Debye-Ang^2)
       XXX    1824.5869    XXY      28.1432    XYY     237.0991
       YYY      40.9743    XXZ    -132.4022    XYZ      16.3419
       YYZ     -51.2705    XZZ     238.4581    YZZ      10.2495
       ZZZ    -171.1451
    Hexadecapole Moments (Debye-Ang^3)
      XXXX  -15381.4025   XXXY    -353.7364   XXYY   -1300.9014
      XYYY    -202.0870   YYYY    -225.2906   XXXZ    1227.2798
      XXYZ     -91.1824   XYYZ     205.6365   YYYZ      26.6956
      XXZZ   -1320.4669   XYZZ     -30.7069   YYZZ    -119.1115
      XZZZ     626.3611   YZZZ      23.9093   ZZZZ    -511.2592
 -----------------------------------------------------------------
 Calculating analytic gradient of the SCF energy
 Gradient of CDS energy
            1           2           3           4           5           6
    1   0.0009739  -0.0017102  -0.0000140  -0.0003412   0.0012300   0.0001040
    2  -0.0006404   0.0014103  -0.0012396  -0.0005223  -0.0001135   0.0007329
    3   0.0000461   0.0003558  -0.0003784  -0.0004311   0.0001032   0.0005083
            7           8           9          10          11          12
    1  -0.0000682   0.0000428   0.0000297   0.0000201  -0.0008207   0.0001758
    2   0.0004434   0.0002469  -0.0000216  -0.0001803  -0.0002146   0.0002166
    3  -0.0000204  -0.0000520  -0.0000722  -0.0001486   0.0000419   0.0007956
           13          14          15
    1  -0.0001373   0.0004908   0.0000246
    2  -0.0001618   0.0000390   0.0000049
    3  -0.0002258  -0.0004893  -0.0000332
 Gradient of SCF Energy
            1           2           3           4           5           6
    1  -0.0077949  -0.0165190   0.0405185   0.0327491  -0.0205122   0.0050269
    2   0.0051024   0.0108754  -0.0267523   0.0003712  -0.0124713   0.0337261
    3   0.0007093   0.0023328   0.0174754   0.0098295  -0.0116923   0.0017372
            7           8           9          10          11          12
    1  -0.0236196  -0.0016079  -0.0034220  -0.0150000   0.0197146  -0.0075217
    2   0.0112184   0.0173123  -0.0114657  -0.0276622   0.0003715  -0.0024352
    3   0.0111082  -0.0221650  -0.0371470   0.0232183  -0.0053393   0.0112910
           13          14          15
    1  -0.0046916  -0.0034755   0.0061553
    2   0.0005177   0.0006116   0.0006801
    3   0.0009254   0.0053192  -0.0076026
 Max gradient component =       4.052E-02
 RMS gradient           =       1.607E-02
 Computing fast CPCM-SWIG gradient
 Updating gradient with PCM contributions...
 -- total gradient after adding PCM contribution --
---------------------------------------------------
  Atom         X              Y              Z     
---------------------------------------------------
   1      -0.000786       0.000151      -0.000173
   2       0.000183      -0.000005      -0.000030
   3       0.000347       0.000019       0.000107
   4       0.000163      -0.000117       0.000007
   5      -0.000051      -0.000060      -0.000002
   6       0.000037       0.000020       0.000013
   7       0.000059       0.000006       0.000040
   8       0.000028      -0.000002       0.000039
   9      -0.000008       0.000018       0.000016
  10       0.000010      -0.000010      -0.000023
  11       0.000017       0.000008       0.000001
  12      -0.000008      -0.000009       0.000013
  13       0.000004      -0.000001      -0.000008
  14       0.000002      -0.000008      -0.000003
  15       0.000002      -0.000010       0.000003
---------------------------------------------------
 Number of fixed atoms: 0
 Gradient time:  CPU 1041.24 s  wall 43.87 s
 ----------------------------------------------------------------
             Standard Nuclear Orientation (Angstroms)
    I     Atom           X                Y                Z
 ----------------------------------------------------------------
    1      O      -5.3896121047    -1.2874457100     0.4893663227
    2      C      -6.2176180820    -0.2611068540     0.8616031488
    3      C      -4.1094671668    -1.2113750997     1.1239252091
    4      O      -7.3794088010    -0.2854148377     0.4777351497
    5      O      -5.6380073203     0.6226972097     1.5795478624
    6      C      -3.8081625455     0.2068995948     1.5560808087
    7      H      -3.3763128099    -1.5437486548     0.3933933077
    8      H      -4.0993208729    -1.8814597157     1.9888426390
    9      H      -3.7435736245     0.4711031377     2.5968250653
   10      H      -3.6044640595     0.9547351565     0.8077890474
   11      O      -1.9093242017    -0.1560336816     1.7181552625
   12      C      -1.1962091485    -0.0162801623     0.6562082436
   13      O      -1.7282636601     0.3187885192    -0.4755663692
   14      O       0.0789663787    -0.2093792172     0.6950816617
   15      Li      0.0062847518     0.2084668540    -1.1015864163
 ----------------------------------------------------------------
 Nuclear Repulsion Energy =         561.30081583 hartrees
 There are       40 alpha and       40 beta electrons
 Discretize the solute cavity surface with Lebedev spheres
	Using 110 Lebedev grid points for each H atom
	Using 194 Lebedev grid points for other atoms
	Atomic van der Waals radii will be scaled by 1.20
 Remove points where switching function is < 1.0e-08
 Keep 1004 surface tesserae and discard 1570 interior tesserae
 Molecular Surface Area = 225.349 Angst**2

                       Distance Matrix (Angstroms)
             O (  1)   C (  2)   C (  3)   O (  4)   O (  5)   C (  6)
   C (  2)  1.370228
   C (  3)  1.430812  2.327257
   O (  4)  2.227890  1.223807  3.459405
   O (  5)  2.213333  1.277694  2.430607  2.251919
   C (  6)  2.423207  2.550844  1.512959  3.762845  1.876638
   H (  7)  2.031816  3.152365  1.087044  4.197058  3.348987  2.145485
   H (  8)  2.065462  2.895409  1.094166  3.948390  2.967470  2.152510
   H (  9)  3.200519  3.109344  2.265843  4.275764  2.155624  1.075697
   H ( 10)  2.883665  2.882662  2.246554  3.987119  2.200263  1.077354
   O ( 11)  3.860365  4.393873  2.511470  5.610455  3.811655  1.939994
   C ( 12)  4.385012  5.031568  3.183408  6.191627  4.581530  2.771621
   O ( 13)  4.112974  4.720022  3.251139  5.762750  4.427409  2.909654
   O ( 14)  5.577625  6.298998  4.327918  7.461929  5.844521  4.003046
   Li( 15)  5.821047  6.543056  4.889608  7.568794  6.262436  4.649001
             H (  7)   H (  8)   H (  9)   H ( 10)   O ( 11)   C ( 12)
   H (  8)  1.783886
   H (  9)  3.008259  2.455759
   H ( 10)  2.542872  3.111876  1.858467
   O ( 11)  2.415120  2.801152  2.128340  2.221728
   C ( 12)  2.674899  3.699036  3.239229  2.601065  1.286777
   O ( 13)  2.634426  4.066487  3.677535  2.360415  2.251811  1.294707
   O ( 14)  3.716250  4.682708  4.323366  3.864651  2.236700  1.290299
   Li( 15)  4.092333  5.547481  5.273392  4.152125  3.428318  2.141575
             O ( 13)   O ( 14)
   O ( 14)  2.217083
   Li( 15)  1.847358  1.846048
 
 Requested basis set is def2-TZVPPD
 There are 174 shells and 478 basis functions
 A cutoff of  1.0D-14 yielded  13674 shell pairs
 There are    103486 function pairs (    132624 Cartesian)
 Smallest overlap matrix eigenvalue = 4.58E-06
 Guess MOs from SCF MO coefficient file

 -----------------------------------------------------------------------
  General SCF calculation program by
  Eric Jon Sundstrom, Paul Horn, Yuezhi Mao, Dmitri Zuev, Alec White,
  David Stuck, Shaama M.S., Shane Yost, Joonho Lee, David Small,
  Daniel Levine, Susi Lehtola, Hugh Burton, Evgeny Epifanovsky,
  Bang C. Huynh
 -----------------------------------------------------------------------
 Exchange:     0.1670 Hartree-Fock + 1.0000 wB97X-V + LR-HF
 Correlation:  1.0000 wB97X-V
 Using SG-3 standard quadrature grid
 Nonlocal Correlation:  VV10 with C = 0.0100 and b = 6.00 and scale = 1.00000
 Grid used for NLC:  SG-1 standard quadrature
 
 Citation of the SMD model:
 Marenich, A.V.; Cramer, C.J.; Truhlar, D.G.
 J. Phys. Chem. B 2009, 113, 6378-6396.
 iSolventCode=           0
 Solvent: other                                                           
 
 vradii
            1           2           3           4           5           6
    1   2.2940000   1.8500000   1.8500000   2.2940000   2.2940000   1.8500000
            7           8           9          10          11          12
    1   1.2000000   1.2000000   1.2000000   1.2000000   2.2940000   1.8500000
           13          14          15
    1   2.2940000   2.2940000   2.1476001
 using 32 threads for integral computing
 -------------------------------------------------------
 OpenMP Integral computing Module                
 Release: version 1.0, May 2013, Q-Chem Inc. Pittsburgh 
 -------------------------------------------------------
 using 32 threads for integral computing
 -------------------------------------------------------
 OpenMP Integral computing Module                
 Release: version 1.0, May 2013, Q-Chem Inc. Pittsburgh 
 -------------------------------------------------------
 -------------------------------------------------------
 OpenMP BLAS3 based DFT computing Module                
 Release: version 1.0, May 2013, Q-Chem Inc. Pittsburgh 
 -------------------------------------------------------
 -------------------------------------------------------
 OpenMP BLAS3 based DFT computing Module                
 Release: version 1.0, May 2013, Q-Chem Inc. Pittsburgh 
 -------------------------------------------------------
 -------------------------------------------------------
 OpenMP BLAS3 based DFT computing Module                
 Release: version 1.0, May 2013, Q-Chem Inc. Pittsburgh 
 -------------------------------------------------------
 A restricted SCF calculation will be
 performed using Roothaan-Hall, DIIS
 SCF converges when DIIS error is below 1.0e-08
 ---------------------------------------
  Cycle       Energy         DIIS error
 ---------------------------------------
    1    -604.1120773330      1.80e-04  Roothaan Step
 ---------------------------------------
  Cycle       Energy         DIIS error
 ---------------------------------------
    1    -613.9800808730      1.91e-04  
    2    -613.9814954211      1.31e-04  
    3    -613.9818106174      5.87e-05  
    4    -613.9818895253      1.63e-05  
    5    -613.9819008506      7.02e-06  
    6    -613.9819026450      3.06e-06  
    7    -613.9819030097      1.16e-06  
    8    -613.9819030614      3.33e-07  
    9    -613.9819030679      1.60e-07  
   10    -613.9819030690      4.36e-08  
   11    -613.9819030691      2.01e-08  
   12    -613.9819030691      7.75e-09  Convergence criterion met
 ---------------------------------------
 SCF time:   CPU 3910.81s  wall 149.00s 
(3)  G-ENP(liq) elect-nuc-pol free energy of system     -613.981903069 a.u.
(4)  G-CDS(liq) cavity-dispersion-solvent structure 
     free energy                                               -4.6547 kcal/mol
(6)  G-S(liq) free energy of system                     -613.989320769 a.u.
 SCF   energy in the final basis set =     -613.9819030691
 Total energy in the final basis set =     -613.9893207691
 
 --------------------------------------------------------------
 
                    Orbital Energies (a.u.)
 --------------------------------------------------------------
 
 Alpha MOs
 -- Occupied --
-19.2180 -19.1713 -19.1440 -19.1438 -19.1291 -19.1266 -10.3855 -10.3599
-10.3205 -10.3021  -2.0560  -1.2212  -1.1659  -1.1106  -1.0829  -1.0491
 -1.0299  -0.8684  -0.7506  -0.6489  -0.6059  -0.5999  -0.5698  -0.5584
 -0.5369  -0.5253  -0.5158  -0.5051  -0.4927  -0.4811  -0.4537  -0.4040
 -0.3753  -0.3740  -0.3660  -0.3545  -0.3480  -0.3390  -0.3349  -0.3098
 -- Virtual --
  0.0376   0.0529   0.0534   0.0596   0.0753   0.0929   0.0960   0.1120
  0.1154   0.1271   0.1327   0.1337   0.1396   0.1464   0.1514   0.1538
  0.1578   0.1601   0.1647   0.1724   0.1802   0.1850   0.1882   0.1952
  0.2055   0.2115   0.2122   0.2211   0.2278   0.2373   0.2450   0.2503
  0.2567   0.2666   0.2747   0.2758   0.2847   0.2966   0.2993   0.3042
  0.3178   0.3228   0.3296   0.3385   0.3525   0.3554   0.3613   0.3651
  0.3722   0.3835   0.3868   0.3888   0.3963   0.4004   0.4087   0.4150
  0.4176   0.4199   0.4316   0.4380   0.4401   0.4494   0.4538   0.4605
  0.4690   0.4760   0.4782   0.4863   0.4898   0.5007   0.5054   0.5090
  0.5138   0.5269   0.5311   0.5330   0.5400   0.5460   0.5483   0.5568
  0.5614   0.5694   0.5796   0.5820   0.5862   0.6015   0.6097   0.6173
  0.6214   0.6264   0.6306   0.6387   0.6476   0.6529   0.6590   0.6640
  0.6710   0.6759   0.6856   0.6923   0.6997   0.7111   0.7162   0.7240
  0.7302   0.7367   0.7421   0.7482   0.7650   0.7690   0.7722   0.7804
  0.7846   0.7928   0.8047   0.8105   0.8170   0.8223   0.8227   0.8385
  0.8387   0.8424   0.8616   0.8640   0.8694   0.8743   0.8854   0.8906
  0.8988   0.9205   0.9227   0.9319   0.9557   0.9614   0.9682   0.9874
  0.9967   0.9999   1.0118   1.0199   1.0272   1.0398   1.0468   1.0636
  1.0663   1.0864   1.0946   1.0955   1.1011   1.1094   1.1278   1.1362
  1.1550   1.1833   1.1855   1.2085   1.2151   1.2456   1.2507   1.2561
  1.2850   1.2868   1.2969   1.3063   1.3144   1.3221   1.3367   1.3394
  1.3550   1.3704   1.3855   1.4089   1.4174   1.4246   1.4365   1.4456
  1.4597   1.4808   1.5014   1.5111   1.5179   1.5432   1.5639   1.5704
  1.5910   1.6359   1.6368   1.6728   1.6838   1.6910   1.7056   1.7342
  1.7655   1.7704   1.8134   1.8393   1.8484   1.8849   1.9028   1.9105
  1.9326   1.9511   1.9624   1.9740   1.9946   2.0036   2.0186   2.0256
  2.0467   2.0582   2.0736   2.0821   2.1217   2.1503   2.1722   2.2131
  2.2263   2.2280   2.2499   2.2922   2.3077   2.3249   2.3422   2.3833
  2.3886   2.4074   2.4307   2.4505   2.4663   2.4735   2.4983   2.5055
  2.5158   2.5424   2.5591   2.5705   2.5838   2.6289   2.6466   2.7301
  2.7906   2.7967   2.8165   2.8314   2.9079   2.9187   2.9888   2.9971
  3.0166   3.0318   3.0521   3.0652   3.0723   3.0955   3.1101   3.1175
  3.1405   3.1497   3.1803   3.1854   3.2403   3.2730   3.2802   3.2990
  3.3124   3.3179   3.3318   3.3360   3.3686   3.3935   3.4107   3.4268
  3.4388   3.4471   3.4592   3.4713   3.4843   3.4875   3.5172   3.5339
  3.5420   3.5530   3.5745   3.5820   3.6007   3.6069   3.6184   3.6305
  3.6443   3.6493   3.6626   3.6688   3.6868   3.6898   3.7043   3.7153
  3.7202   3.7368   3.7854   3.8163   3.8492   3.8732   3.8850   3.8974
  3.9478   3.9661   4.0123   4.0529   4.0649   4.0968   4.1066   4.1297
  4.1955   4.2022   4.2400   4.2519   4.3018   4.3276   4.3573   4.4073
  4.4128   4.4669   4.4965   4.5162   4.6179   4.6352   4.6860   4.7326
  4.7545   4.7608   4.8133   4.8547   4.8820   4.9147   4.9275   4.9620
  4.9984   5.0119   5.0614   5.0824   5.1432   5.1656   5.2275   5.2688
  5.3084   5.3255   5.3292   5.3524   5.3662   5.3803   5.4006   5.4301
  5.4432   5.4594   5.4835   5.5058   5.5523   5.5782   5.6075   5.6233
  5.6410   5.6447   5.6519   5.6719   5.7035   5.7120   5.7447   5.7701
  5.7909   5.7977   5.8248   5.9051   5.9584   5.9746   5.9945   6.0015
  6.0426   6.0512   6.0863   6.1150   6.1420   6.2288   6.3053   6.3162
  6.3201   6.3370   6.3537   6.3724   6.4216   6.4513   6.4610   6.5035
  6.6077   6.6199   6.6551   6.6822   6.6993   6.7344   6.7570   6.7839
  6.8010   6.8367   6.8709   6.8861   6.9223   6.9408   7.0000   7.0139
  7.0245   7.0469   7.0679   7.0809   7.1184   7.1585   7.2206   7.3018
  7.3480   7.3952   7.4271   7.4750   7.5157   7.5299   7.5554   7.5915
  7.6136   7.6777   7.7147  14.9538  23.5945  23.7640  23.9121  24.0098
 44.2708  44.3806  44.4195  44.4623  44.4848  44.6095
 --------------------------------------------------------------
 
          Ground-State Mulliken Net Atomic Charges

     Atom                 Charge (a.u.)
  ----------------------------------------
      1 O                    -0.296237
      2 C                     0.416700
      3 C                     0.032638
      4 O                    -0.585161
      5 O                    -0.518095
      6 C                     0.314149
      7 H                     0.049157
      8 H                     0.043389
      9 H                     0.119240
     10 H                     0.137376
     11 O                    -0.561359
     12 C                     0.767729
     13 O                    -0.901533
     14 O                    -0.874136
     15 Li                    0.856143
  ----------------------------------------
  Sum of atomic charges =    -1.000000

  Building new vdw surfaces
         Merz-Kollman RESP Net Atomic Charges

     Atom                 Charge (a.u.)
  ----------------------------------------
      1 O                    -0.587396
      2 C                     1.034044
      3 C                     0.314535
      4 O                    -0.764901
      5 O                    -0.758113
      6 C                     0.184147
      7 H                     0.034993
      8 H                     0.034993
      9 H                     0.138991
     10 H                     0.138991
     11 O                    -0.795470
     12 C                     0.973652
     13 O                    -0.885863
     14 O                    -0.885863
     15 Li                    0.823259
  ----------------------------------------
  Sum of atomic charges =    -1.000000

  Related Dipole Moment =    26.1260 (X 24.9714 Y  0.7246 Z -7.6465)

 -----------------------------------------------------------------
                    Cartesian Multipole Moments
 -----------------------------------------------------------------
    Charge (ESU x 10^10)
                -4.8032
    Dipole Moment (Debye)
         X      24.9924      Y       0.7474      Z      -7.7737
       Tot      26.1842
    Quadrupole Moments (Debye-Ang)
        XX    -224.1800     XY       0.3342     YY     -63.1602
        XZ       9.0371     YZ      -2.2323     ZZ     -64.2756
    Octopole Moments (Debye-Ang^2)
       XXX    1824.1568    XXY      28.0397    XYY     237.0629
       YYY      40.9452    XXZ    -132.4052    XYZ      16.3571
       YYZ     -51.2706    XZZ     238.4667    YZZ      10.2402
       ZZZ    -171.1593
    Hexadecapole Moments (Debye-Ang^3)
      XXXX  -15377.8418   XXXY    -353.0369   XXYY   -1300.6282
      XYYY    -201.8995   YYYY    -225.1877   XXXZ    1227.2122
      XXYZ     -91.2812   XYYZ     205.6269   YYYZ      26.6803
      XXZZ   -1320.4584   XYZZ     -30.6466   YYZZ    -119.1038
      XZZZ     626.4089   YZZZ      23.8962   ZZZZ    -511.3043
 -----------------------------------------------------------------
 Calculating analytic gradient of the SCF energy
 Gradient of CDS energy
            1           2           3           4           5           6
    1   0.0009749  -0.0017104  -0.0000151  -0.0003416   0.0012300   0.0001038
    2  -0.0006367   0.0014061  -0.0012409  -0.0005211  -0.0001135   0.0007329
    3   0.0000471   0.0003544  -0.0003776  -0.0004309   0.0001032   0.0005080
            7           8           9          10          11          12
    1  -0.0000684   0.0000438   0.0000297   0.0000201  -0.0008207   0.0001758
    2   0.0004435   0.0002474  -0.0000216  -0.0001803  -0.0002146   0.0002166
    3  -0.0000208  -0.0000519  -0.0000722  -0.0001486   0.0000419   0.0007956
           13          14          15
    1  -0.0001373   0.0004908   0.0000246
    2  -0.0001618   0.0000390   0.0000049
    3  -0.0002258  -0.0004893  -0.0000332
 Gradient of SCF Energy
            1           2           3           4           5           6
    1  -0.0072705  -0.0166486   0.0402179   0.0326854  -0.0204694   0.0049693
    2   0.0054184   0.0107109  -0.0268927   0.0004626  -0.0125450   0.0337055
    3   0.0010557   0.0022475   0.0173213   0.0098463  -0.0117576   0.0016976
            7           8           9          10          11          12
    1  -0.0236380  -0.0015818  -0.0034324  -0.0150012   0.0197021  -0.0075158
    2   0.0112184   0.0173224  -0.0114807  -0.0276612   0.0003658  -0.0024353
    3   0.0111020  -0.0221682  -0.0371589   0.0232243  -0.0053361   0.0112774
           13          14          15
    1  -0.0046912  -0.0034821   0.0061564
    2   0.0005181   0.0006128   0.0006799
    3   0.0009301   0.0053229  -0.0076045
 Max gradient component =       4.022E-02
 RMS gradient           =       1.605E-02
 Computing fast CPCM-SWIG gradient
 Updating gradient with PCM contributions...
 -- total gradient after adding PCM contribution --
---------------------------------------------------
  Atom         X              Y              Z     
---------------------------------------------------
   1      -0.000162       0.000555       0.000227
   2       0.000018      -0.000214      -0.000110
   3       0.000038      -0.000178      -0.000035
   4       0.000073      -0.000006       0.000015
   5      -0.000004      -0.000153      -0.000092
   6      -0.000029       0.000004      -0.000043
   7       0.000022       0.000007       0.000017
   8       0.000044       0.000014       0.000025
   9      -0.000011       0.000008       0.000015
  10       0.000013      -0.000010      -0.000019
  11      -0.000006      -0.000000       0.000005
  12       0.000002      -0.000007      -0.000006
  13       0.000003      -0.000003      -0.000002
  14      -0.000006      -0.000007       0.000001
  15       0.000003      -0.000010       0.000002
---------------------------------------------------
 Number of fixed atoms: 0
 Gradient time:  CPU 1034.05 s  wall 43.24 s
 ----------------------------------------------------------------
             Standard Nuclear Orientation (Angstroms)
    I     Atom           X                Y                Z
 ----------------------------------------------------------------
    1      O      -5.3896121047    -1.2894457100     0.4893663227
    2      C      -6.2176180820    -0.2611068540     0.8616031488
    3      C      -4.1094671668    -1.2113750997     1.1239252091
    4      O      -7.3794088010    -0.2854148377     0.4777351497
    5      O      -5.6380073203     0.6226972097     1.5795478624
    6      C      -3.8081625455     0.2068995948     1.5560808087
    7      H      -3.3763128099    -1.5437486548     0.3933933077
    8      H      -4.0993208729    -1.8814597157     1.9888426390
    9      H      -3.7435736245     0.4711031377     2.5968250653
   10      H      -3.6044640595     0.9547351565     0.8077890474
   11      O      -1.9093242017    -0.1560336816     1.7181552625
   12      C      -1.1962091485    -0.0162801623     0.6562082436
   13      O      -1.7282636601     0.3187885192    -0.4755663692
   14      O       0.0789663787    -0.2093792172     0.6950816617
   15      Li      0.0062847518     0.2084668540    -1.1015864163
 ----------------------------------------------------------------
 Nuclear Repulsion Energy =         561.25113097 hartrees
[...]
 H         -0.057 -0.234 -0.069    0.018  0.096  0.020    0.061 -0.360 -0.189
 H         -0.124 -0.399  0.422    0.073  0.156 -0.169    0.023 -0.022 -0.231
 H          0.021  0.050  0.555    0.094 -0.052 -0.226   -0.150 -0.401 -0.370
 O         -0.005  0.031 -0.037    0.181 -0.043  0.131    0.013  0.044 -0.024
 C         -0.048  0.030 -0.078   -0.096  0.028 -0.042   -0.000  0.012  0.005
 O          0.015  0.018 -0.109   -0.281  0.021  0.081   -0.023  0.004 -0.003
 O         -0.046  0.009 -0.036   -0.051  0.063 -0.254    0.007 -0.009  0.004
 Li         0.229 -0.044  0.052    0.613 -0.189  0.446   -0.075 -0.018  0.132
 TransDip   0.037 -0.071  0.161    0.186 -0.038  0.085   -0.215 -0.084  0.027

 Mode:                13                     14                     15
 Frequency:       574.70                 652.95                 703.68
 Force Cnst:      1.4334                 1.2676                 3.4104
 Red. Mass:       7.3663                 5.0465                11.6898
 IR Active:          YES                    YES                    YES
 IR Intens:      206.107                  6.131                 20.180
 Raman Active:       YES                    YES                    YES
               X      Y      Z        X      Y      Z        X      Y      Z
 O         -0.010 -0.011  0.001    0.227 -0.025 -0.010   -0.024  0.089  0.041
 C         -0.034 -0.018 -0.026   -0.063 -0.026 -0.044   -0.077  0.008  0.004
 C          0.000  0.039  0.018    0.279 -0.133  0.092    0.035  0.005 -0.000
 O         -0.050  0.014 -0.005   -0.130  0.217  0.092   -0.077 -0.043 -0.059
 O          0.005 -0.035 -0.031   -0.219  0.021 -0.061    0.043 -0.042  0.023
 C          0.072  0.017  0.058   -0.088 -0.078 -0.016    0.052 -0.012 -0.050
 H         -0.007 -0.013  0.036    0.313  0.163 -0.012   -0.044 -0.003 -0.080
 H         -0.023  0.064  0.037    0.398 -0.309 -0.049    0.053 -0.046 -0.044
 H          0.107 -0.105  0.091   -0.096  0.270 -0.107    0.131  0.175 -0.111
 H          0.043  0.118  0.156   -0.194 -0.321 -0.288    0.305 -0.221 -0.203
 O          0.129  0.018 -0.171   -0.000 -0.024 -0.005    0.426 -0.113  0.304
 C          0.071  0.016 -0.115   -0.002 -0.003 -0.003   -0.183  0.053 -0.076
 O         -0.032  0.028 -0.106    0.009  0.002 -0.013    0.122  0.069 -0.391
 O          0.095 -0.018  0.018   -0.001  0.002 -0.003   -0.343 -0.010  0.248
 Li        -0.518 -0.091  0.734   -0.015 -0.002  0.016   -0.103  0.039 -0.105
 TransDip  -0.261 -0.038  0.377    0.058 -0.046  0.028   -0.142  0.001 -0.022

 Mode:                16                     17                     18
 Frequency:       753.51                 762.92                 826.08
 Force Cnst:      3.9282                 1.6232                 2.2127
 Red. Mass:      11.7425                 4.7332                 5.5033
 IR Active:          YES                    YES                    YES
 IR Intens:       34.323                  6.143                 53.811
 Raman Active:       YES                    YES                    YES
               X      Y      Z        X      Y      Z        X      Y      Z
 O         -0.009 -0.145 -0.073    0.005  0.239  0.115    0.089  0.128 -0.017
 C          0.083 -0.027  0.037   -0.112  0.049 -0.042   -0.178 -0.266  0.443
 C         -0.056  0.005 -0.059    0.054 -0.006  0.082    0.054 -0.009 -0.045
 O          0.118  0.049  0.058   -0.156 -0.084 -0.089   -0.010  0.077 -0.141
 O         -0.109  0.075  0.023    0.212 -0.150 -0.028    0.061  0.040 -0.128
 C         -0.001  0.045 -0.025    0.018 -0.059  0.042   -0.028 -0.026 -0.065
 H          0.019 -0.154  0.088   -0.083  0.296 -0.198    0.016 -0.383  0.090
 H         -0.109  0.182  0.082    0.203 -0.349 -0.190   -0.111  0.247  0.165
 H         -0.255 -0.055  0.013    0.094  0.376 -0.072   -0.107 -0.461  0.048
 H          0.001  0.193  0.116    0.009 -0.398 -0.304    0.052  0.262  0.253
 O         -0.163 -0.045  0.292   -0.121  0.017  0.013   -0.014  0.006 -0.005
 C         -0.125 -0.026  0.161   -0.015 -0.010  0.059   -0.009 -0.010  0.008
 O          0.471 -0.047 -0.089    0.097 -0.021  0.031    0.005 -0.000  0.008
 O         -0.130  0.120 -0.433    0.002  0.028 -0.128   -0.002  0.004 -0.005
 Li        -0.189 -0.034  0.268   -0.027 -0.010  0.062    0.005  0.000 -0.005
 TransDip  -0.077 -0.017  0.170   -0.058 -0.015  0.052   -0.149 -0.116  0.140

 Mode:                19                     20                     21
 Frequency:       840.10                 871.96                 971.95
 Force Cnst:      0.7592                 5.5253                 4.6118
 Red. Mass:       1.8257                12.3343                 8.2858
 IR Active:          YES                    YES                    YES
 IR Intens:       24.239                 31.823                 54.262
 Raman Active:       YES                    YES                    YES
               X      Y      Z        X      Y      Z        X      Y      Z
 O         -0.044 -0.047 -0.096    0.006  0.005  0.012    0.092  0.262  0.225
 C          0.004 -0.095  0.123   -0.004  0.005 -0.005    0.189 -0.194 -0.097
 C         -0.090  0.022  0.043    0.008  0.006 -0.007   -0.274  0.148 -0.039
 O          0.067  0.022 -0.013   -0.008 -0.001 -0.002    0.213  0.106  0.141
 O         -0.008  0.034 -0.033    0.003 -0.002  0.003   -0.206 -0.220 -0.189
 C          0.037  0.030  0.090   -0.002 -0.011 -0.017   -0.016 -0.146 -0.068
 H         -0.036  0.471 -0.109    0.043 -0.034  0.046   -0.431  0.201 -0.222
 H          0.055 -0.328 -0.238   -0.030  0.074  0.048   -0.138 -0.007 -0.159
 H          0.108  0.560 -0.044   -0.004 -0.095  0.002   -0.240 -0.221 -0.047
 H         -0.012 -0.338 -0.298    0.004  0.049  0.045   -0.105 -0.124 -0.061
 O          0.007 -0.004 -0.002   -0.036 -0.215 -0.051    0.022  0.001  0.028
 C          0.013  0.018 -0.008    0.122  0.869  0.204    0.012  0.005 -0.016
 O         -0.009 -0.002 -0.006   -0.027 -0.228 -0.049   -0.011  0.006 -0.019
 O          0.008 -0.007  0.005   -0.034 -0.223 -0.056    0.015 -0.005  0.007
 Li        -0.004  0.000  0.005    0.005  0.031  0.006   -0.003 -0.000  0.004
 TransDip   0.151  0.003  0.046    0.023  0.174  0.041    0.152 -0.150 -0.101

 Mode:                22                     23                     24
 Frequency:      1060.68                1077.20                1137.01
 Force Cnst:      2.0889                 5.8571                 3.6877
 Red. Mass:       3.1514                 8.5672                 4.8415
 IR Active:          YES                    YES                    YES
 IR Intens:       81.231                  7.521                228.171
 Raman Active:       YES                    YES                    YES
               X      Y      Z        X      Y      Z        X      Y      Z
 O          0.142 -0.113 -0.012    0.086 -0.065 -0.001    0.297 -0.065  0.077
 C         -0.058  0.065  0.021   -0.042  0.080  0.036   -0.064  0.088  0.019
 C         -0.139  0.211  0.037   -0.063  0.078 -0.020   -0.305 -0.207 -0.128
 O         -0.055 -0.005 -0.020   -0.032 -0.011 -0.018   -0.076  0.009 -0.015
 O          0.050  0.045  0.037    0.059  0.004  0.031    0.042 -0.012  0.006
 C         -0.018 -0.204 -0.078   -0.022 -0.080 -0.031    0.022  0.192  0.018
 H          0.146  0.614  0.145    0.102  0.183  0.098   -0.204 -0.069 -0.118
 H          0.150  0.232  0.049    0.054  0.169  0.054   -0.052 -0.379 -0.228
 H          0.180 -0.471 -0.040   -0.597  0.013 -0.026    0.150  0.329 -0.006
 H          0.002 -0.247 -0.099    0.137 -0.147 -0.054   -0.160  0.474  0.224
 O          0.032  0.017 -0.043   -0.215 -0.041  0.312    0.026 -0.009 -0.004
 C         -0.001 -0.006  0.005    0.022 -0.003 -0.002   -0.010  0.004  0.001
 O          0.031 -0.014  0.051   -0.186  0.106 -0.346    0.004 -0.005  0.011
 O         -0.067  0.011 -0.006    0.388 -0.062  0.027   -0.009  0.001  0.003
 Li        -0.000 -0.000  0.001   -0.002 -0.001  0.007    0.002  0.001 -0.005
 TransDip  -0.248  0.143 -0.036   -0.030  0.078  0.026   -0.444  0.185 -0.050

 Mode:                25                     26                     27
 Frequency:      1158.95                1173.12                1226.14
 Force Cnst:      1.3010                 0.9030                 1.1997
 Red. Mass:       1.6440                 1.1137                 1.3544
 IR Active:          YES                    YES                    YES
 IR Intens:       26.064                  8.208                101.019
 Raman Active:       YES                    YES                    YES
               X      Y      Z        X      Y      Z        X      Y      Z
 O         -0.040  0.021 -0.055    0.012  0.003 -0.008    0.011  0.009  0.013
 C          0.010  0.001  0.001   -0.001 -0.015 -0.009    0.018 -0.099 -0.056
 C         -0.014 -0.057  0.174   -0.021 -0.030  0.040    0.001  0.000  0.000
 O          0.015 -0.005  0.003   -0.005  0.003 -0.000   -0.032  0.013 -0.002
 O          0.005 -0.005 -0.009   -0.013  0.004  0.028   -0.022  0.052  0.027
 C          0.022  0.038 -0.113    0.003  0.034 -0.035    0.009  0.022  0.003
 H         -0.179  0.355 -0.178   -0.076  0.086 -0.067   -0.103 -0.078 -0.070
 H          0.433 -0.288 -0.014    0.104 -0.109 -0.021   -0.090 -0.078 -0.064
 H          0.075 -0.388 -0.015   -0.408 -0.080  0.019    0.873 -0.238  0.014
 H         -0.290  0.447  0.211    0.874 -0.082  0.078    0.322 -0.093 -0.032
 O         -0.001 -0.009  0.029   -0.004  0.013 -0.033   -0.041  0.013  0.014
 C         -0.000  0.001 -0.000    0.004 -0.001  0.009   -0.020 -0.007  0.056
 O         -0.006  0.005 -0.015    0.003 -0.004  0.010   -0.015  0.011 -0.039
 O          0.011 -0.002  0.000   -0.013  0.002 -0.001    0.029 -0.004 -0.004
 Li        -0.000  0.000  0.000    0.001 -0.000  0.000    0.005  0.000 -0.005
 TransDip   0.149 -0.020  0.065   -0.056 -0.073  0.002   -0.112 -0.301  0.023

 Mode:                28                     29                     30
 Frequency:      1302.49                1338.60                1428.77
 Force Cnst:      1.0926                 2.1206                 1.8666
 Red. Mass:       1.0931                 2.0086                 1.5519
 IR Active:          YES                    YES                    YES
 IR Intens:       48.627                206.091                 88.363
 Raman Active:       YES                    YES                    YES
               X      Y      Z        X      Y      Z        X      Y      Z
 O         -0.025  0.007  0.037   -0.029  0.016 -0.017   -0.017  0.035  0.011
 C          0.002  0.007  0.010   -0.058  0.164  0.082    0.046 -0.115 -0.055
 C          0.022 -0.018 -0.010   -0.018 -0.076 -0.036   -0.024 -0.044 -0.023
 O          0.004  0.000 -0.000    0.083 -0.014  0.017   -0.041  0.011 -0.006
 O         -0.007 -0.016 -0.009   -0.062 -0.111 -0.085    0.023  0.057  0.041
 C          0.012  0.021 -0.049   -0.024 -0.005  0.019   -0.006 -0.107 -0.026
 H          0.540  0.346  0.340    0.308  0.182  0.169    0.178  0.296  0.033
 H         -0.520 -0.312 -0.244    0.405  0.335  0.292    0.089  0.280  0.219
 H          0.007 -0.113 -0.018    0.504  0.124 -0.037    0.048  0.575 -0.201
 H          0.045  0.136  0.069    0.339  0.016  0.130    0.076  0.338  0.453
 O         -0.004 -0.002  0.003   -0.010  0.007 -0.008   -0.002  0.001  0.010
 C          0.012 -0.007  0.007   -0.005 -0.008  0.037   -0.025  0.012 -0.044
 O         -0.003  0.003 -0.007   -0.006  0.005 -0.015    0.010 -0.004  0.019
 O         -0.006  0.002 -0.001    0.003  0.000 -0.003    0.013 -0.003  0.004
 Li         0.000 -0.000  0.001    0.003  0.000 -0.002   -0.004  0.001 -0.000
 TransDip   0.221  0.022  0.020   -0.132  0.344  0.276    0.042 -0.187 -0.232

 Mode:                31                     32                     33
 Frequency:      1443.20                1461.50                1495.20
 Force Cnst:      6.3207                 2.2275                 5.8952
 Red. Mass:       5.1507                 1.7700                 4.4756
 IR Active:          YES                    YES                    YES
 IR Intens:      822.892                134.980               1156.647
 Raman Active:       YES                    YES                    YES
               X      Y      Z        X      Y      Z        X      Y      Z
 O         -0.009  0.034  0.009    0.017 -0.040 -0.012    0.006 -0.014 -0.001
 C          0.042 -0.087 -0.041   -0.031  0.072  0.035   -0.017  0.017  0.005
 C         -0.043 -0.108 -0.047    0.056  0.109  0.054    0.038 -0.032  0.014
 O         -0.038  0.008 -0.006    0.026 -0.007  0.004    0.011 -0.002  0.002
 O          0.023  0.039  0.027   -0.014 -0.024 -0.019   -0.006 -0.003 -0.004
 C          0.041  0.045  0.038   -0.036 -0.103 -0.037    0.060 -0.019  0.001
 H          0.148  0.343 -0.056   -0.327 -0.295 -0.143   -0.176  0.364 -0.375
 H          0.118  0.411  0.355   -0.250 -0.288 -0.256   -0.449  0.224  0.197
 H         -0.246 -0.109  0.103    0.131  0.427 -0.185   -0.263  0.073 -0.001
 H         -0.264 -0.099 -0.189    0.132  0.291  0.416   -0.182  0.054  0.009
 O         -0.016  0.008 -0.039   -0.007  0.006 -0.013    0.112  0.020 -0.164
 C          0.390 -0.120  0.272    0.102 -0.031  0.082   -0.313 -0.039  0.356
 O         -0.097  0.048 -0.143   -0.028  0.013 -0.040   -0.004  0.019 -0.074
 O         -0.183  0.035 -0.036   -0.047  0.009 -0.010    0.114 -0.013 -0.016
 Li         0.029 -0.008  0.017    0.009 -0.002  0.003    0.018  0.005 -0.033
 TransDip   0.762 -0.304  0.414    0.198  0.082  0.304   -0.873 -0.001  0.651

 Mode:                34                     35                     36
 Frequency:      1505.78                1743.14                3079.68
 Force Cnst:      1.7211                22.3791                 5.9720
 Red. Mass:       1.2883                12.5005                 1.0687
 IR Active:          YES                    YES                    YES
 IR Intens:      167.329               1337.682                 54.156
 Raman Active:       YES                    YES                    YES
               X      Y      Z        X      Y      Z        X      Y      Z
 O         -0.020  0.018  0.001   -0.028 -0.021 -0.025   -0.002 -0.000 -0.000
 C          0.005 -0.040 -0.023    0.766  0.162  0.342    0.002 -0.001 -0.000
 C         -0.057  0.053 -0.017   -0.022  0.031  0.005   -0.014  0.058 -0.044
 O         -0.003  0.003  0.001   -0.420 -0.015 -0.143   -0.001  0.000 -0.000
 O          0.006  0.016  0.012   -0.089 -0.101 -0.090    0.000  0.000  0.000
 C          0.015 -0.014 -0.002   -0.058  0.002 -0.002   -0.001 -0.002  0.002
 H          0.276 -0.397  0.510   -0.063 -0.070  0.033    0.202 -0.079 -0.211
 H          0.579 -0.265 -0.249    0.062 -0.013 -0.043   -0.006 -0.580  0.752
 H         -0.081  0.061 -0.016    0.086 -0.021 -0.007   -0.001 -0.004 -0.020
 H         -0.055  0.032  0.028    0.109 -0.032 -0.004    0.002  0.008 -0.008
 O          0.023  0.005 -0.038    0.018  0.001 -0.014    0.000 -0.000  0.000
 C         -0.043 -0.016  0.094   -0.026 -0.004  0.032   -0.000 -0.000 -0.000
 O         -0.008  0.006 -0.024    0.001  0.001 -0.008    0.000 -0.000  0.000
 O          0.013 -0.001 -0.006    0.010 -0.001 -0.003    0.000  0.000 -0.000
 Li         0.006  0.001 -0.006    0.000  0.000 -0.001   -0.000  0.000  0.000
 TransDip  -0.268 -0.212  0.235    1.075  0.147  0.442   -0.078  0.174 -0.139

 Mode:                37                     38                     39
 Frequency:      3178.51                3227.07                3352.84
 Force Cnst:      6.5448                 6.4676                 7.4746
 Red. Mass:       1.0995                 1.0541                 1.1285
 IR Active:          YES                    YES                    YES
 IR Intens:       11.917                  6.612                  1.236
 Raman Active:       YES                    YES                    YES
               X      Y      Z        X      Y      Z        X      Y      Z
 O          0.000 -0.000  0.001   -0.000  0.000  0.000    0.000  0.000  0.000
 C         -0.001  0.000 -0.000    0.000 -0.001 -0.000    0.001  0.000  0.000
 C          0.054 -0.011 -0.073    0.001  0.003  0.001    0.001  0.001 -0.003
 O          0.000  0.000  0.000    0.000  0.000  0.000   -0.000  0.000 -0.000
 O         -0.000  0.000  0.000    0.000  0.001  0.000   -0.000 -0.000  0.001
 C          0.001 -0.001  0.003   -0.015 -0.061 -0.016    0.007  0.026 -0.101
 H         -0.642  0.292  0.643   -0.001 -0.000 -0.001   -0.016  0.011  0.018
 H          0.002 -0.177  0.217   -0.000 -0.002  0.003   -0.001 -0.024  0.024
 H         -0.000 -0.006 -0.024    0.040  0.165  0.669    0.044  0.173  0.696
 H          0.003  0.015 -0.018    0.132  0.503 -0.500   -0.127 -0.481  0.473
 O          0.000  0.000  0.000    0.000  0.000  0.000    0.000 -0.000  0.001
 C         -0.000  0.000  0.000    0.000  0.000 -0.000   -0.001  0.000  0.000
 O          0.000  0.000  0.000   -0.000 -0.000  0.000    0.000 -0.000 -0.000
 O          0.000 -0.000 -0.000   -0.000 -0.000  0.000    0.000 -0.000  0.000
 Li        -0.000 -0.000  0.000   -0.000  0.000  0.000    0.000 -0.000 -0.000
 TransDip   0.071 -0.028 -0.080    0.021 -0.056 -0.057   -0.025 -0.010 -0.024

 STANDARD THERMODYNAMIC QUANTITIES AT   298.15 K  AND     1.00 ATM

   This Molecule has  1 Imaginary Frequencies
   Zero point vibrational energy:       58.307 kcal/mol

   Atom    1 Element O  Has Mass   15.99491
   Atom    2 Element C  Has Mass   12.00000
   Atom    3 Element C  Has Mass   12.00000
   Atom    4 Element O  Has Mass   15.99491
   Atom    5 Element O  Has Mass   15.99491
   Atom    6 Element C  Has Mass   12.00000
   Atom    7 Element H  Has Mass    1.00783
   Atom    8 Element H  Has Mass    1.00783
   Atom    9 Element H  Has Mass    1.00783
   Atom   10 Element H  Has Mass    1.00783
   Atom   11 Element O  Has Mass   15.99491
   Atom   12 Element C  Has Mass   12.00000
   Atom   13 Element O  Has Mass   15.99491
   Atom   14 Element O  Has Mass   15.99491
   Atom   15 Element Li Has Mass    7.01600
   Molecular Mass:   155.016780 amu
   Principal axes and moments of inertia in amu*Bohr^2:
                             1           2           3
    Eigenvalues --      493.14380  3476.77338  3589.72976
          X               0.99431     0.08200    -0.06795
          Y               0.05628     0.13715     0.98895
          Z              -0.09041     0.98715    -0.13175
   Rotational Symmetry Number is   1
   The Molecule is an Asymmetric Top
   Translational Enthalpy:        0.889 kcal/mol
   Rotational Enthalpy:           0.889 kcal/mol
   Vibrational Enthalpy:         62.856 kcal/mol
   gas constant (RT):             0.592 kcal/mol
   Translational Entropy:        41.025  cal/mol.K
   Rotational Entropy:           30.199  cal/mol.K
   Vibrational Entropy:          31.129  cal/mol.K

   Total Enthalpy:               65.226 kcal/mol
   Total Entropy:               102.352  cal/mol.K
Archival summary:
1\1\n0024.lr6\FREQ\ProcedureUnspecified\BasisUnspecified\64i14(1-,1)\ewcspott\WedMay2021:01:172020WedMay2021:01:172020\0\\#,FREQ,ProcedureUnspecified,BasisUnspecified,\\-1,1\O\C,1,1.37098\O,2,1.22381,1,118.249\O,2,1.27769,1,113.386,3,-179.501,0\C,1,1.43087,2,112.307,3,-173.571,0\H,5,1.08704,1,106.792,2,-143.205,0\H,5,1.09417,1,109.018,2,98.2957,0\C,5,1.51296,1,110.814,2,-23.2429,0\H,8,1.0757,5,121.235,1,112.958,0\H,8,1.07735,5,119.338,1,-70.2329,0\O,8,1.93999,5,92.4883,1,-161.818,0\C,11,1.28678,8,116.947,5,87.2179,0\O,12,1.2903,11,120.436,8,178.35,0\O,12,1.29471,11,121.452,8,-1.67603,0\Li,13,1.84605,12,84.1396,11,179.898,0\\\@

 Total job time:  17530.73s(wall), 451793.07s(cpu) 
 Wed May 20 21:01:17 2020

        *************************************************************
        *                                                           *
        *  Thank you very much for using Q-Chem.  Have a nice day.  *
        *                                                           *
        *************************************************************


