
Running Job 1 of 1 mol.qin
qchem mol.qin_288784.0 /tmp/scratch/ 0
/clusterfs/mp/software/qchem/exe/qcprog.exe_s mol.qin_288784.0 /tmp/scratch/
                  Welcome to Q-Chem
     A Quantum Leap Into The Future Of Chemistry


 Q-Chem 5.2, Q-Chem, Inc., Pleasanton, CA (2019)

 Yihan Shao,  Zhengting Gan,  E. Epifanovsky,  A. T. B. Gilbert,  M. Wormit,  
 J. Kussmann,  A. W. Lange,  A. Behn,  Jia Deng,  Xintian Feng,  D. Ghosh,  
 M. Goldey,  P. R. Horn,  L. D. Jacobson,  I. Kaliman,  T. Kus,  A. Landau,  
 Jie Liu,  E. I. Proynov,  R. M. Richard,  R. P. Steele,  E. J. Sundstrom,  
 H. L. Woodcock III,  P. M. Zimmerman,  D. Zuev,  B. Alam,  B. Albrecht,  
 E. Alguire,  S. A. Baeppler,  D. Barton,  Z. Benda,  Y. A. Bernard,  
 E. J. Berquist,  K. B. Bravaya,  H. Burton,  K. Carter-Fenk,  D. Casanova,  
 Chun-Min Chang,  Yunqing Chen,  A. Chien,  K. D. Closser,  M. P. Coons,  
 S. Coriani,  S. Dasgupta,  A. L. Dempwolff,  M. Diedenhofen,  Hainam Do,  
 R. G. Edgar,  Po-Tung Fang,  S. Faraji,  S. Fatehi,  Qingguo Feng,  
 J. Fosso-Tande,  J. Gayvert,  Qinghui Ge,  A. Ghysels,  G. Gidofalvi,  
 J. Gomes,  J. Gonthier,  A. Gunina,  D. Hait,  M. W. D. Hanson-Heine,  
 P. H. P. Harbach,  A. W. Hauser,  M. F. Herbst,  J. E. Herr,  
 E. G. Hohenstein,  Z. C. Holden,  Kerwin Hui,  B. C. Huynh,  T.-C. Jagau,  
 Hyunjun Ji,  B. Kaduk,  K. Khistyaev,  Jaehoon Kim,  P. Klunzinger,  K. Koh,  
 D. Kosenkov,  L. Koulias,  T. Kowalczyk,  C. M. Krauter,  A. Kunitsa,  
 Ka Un Lao,  A. Laurent,  K. V. Lawler,  Joonho Lee,  D. Lefrancois,  
 S. Lehtola,  D. S. Levine,  Yi-Pei Li,  You-Sheng Lin,  Fenglai Liu,  
 Kuan-Yu Liu,  E. Livshits,  M. Loipersberger,  A. Luenser,  P. Manohar,  
 E. Mansoor,  S. F. Manzer,  Shan-Ping Mao,  Yuezhi Mao,  N. Mardirossian,  
 A. V. Marenich,  T. Markovich,  L. A. Martinez-Martinez,  S. A. Maurer,  
 N. J. Mayhall,  S. C. McKenzie,  J.-M. Mewes,  P. Morgante,  A. F. Morrison,  
 J. W. Mullinax,  K. Nanda,  T. S. Nguyen-Beck,  R. Olivares-Amaya,  
 J. A. Parkhill,  S. K. Paul,  Zheng Pei,  T. M. Perrine,  F. Plasser,  
 P. Pokhilko,  S. Prager,  A. Prociuk,  E. Ramos,  B. Rana,  D. R. Rehn,  
 F. Rob,  M. Scheurer,  M. Schneider,  N. Sergueev,  S. M. Sharada,  
 S. Sharma,  D. W. Small,  T. Stauch,  C. J. Stein,  T. Stein,  Yu-Chuan Su,  
 S. P. Veccham,  A. J. W. Thom,  A. Tkatchenko,  T. Tsuchimochi,  
 N. M. Tubman,  L. Vogt,  M. L. Vidal,  O. Vydrov,  M. A. Watson,  J. Wenzel,  
 M. de Wergifosse,  T. A. Wesolowski,  A. White,  J. Witte,  A. Yamada,  
 Jun Yang,  K. Yao,  S. Yeganeh,  S. R. Yost,  Zhi-Qiang You,  A. Zech,  
 Igor Ying Zhang,  Xing Zhang,  Yan Zhao,  Ying Zhu,  B. R. Brooks,  
 G. K. L. Chan,  C. J. Cramer,  M. S. Gordon,  W. J. Hehre,  A. Klamt,  
 M. W. Schmidt,  C. D. Sherrill,  D. G. Truhlar,  A. Aspuru-Guzik,  R. Baer,  
 A. T. Bell,  N. A. Besley,  Jeng-Da Chai,  A. E. DePrince, III,  
 R. A. DiStasio Jr.,  A. Dreuw,  B. D. Dunietz,  T. R. Furlani,  
 Chao-Ping Hsu,  Yousung Jung,  Jing Kong,  D. S. Lambrecht,  WanZhen Liang,  
 C. Ochsenfeld,  V. A. Rassolov,  L. V. Slipchenko,  J. E. Subotnik,  
 T. Van Voorhis,  J. M. Herbert,  A. I. Krylov,  P. M. W. Gill,  M. Head-Gordon

 Contributors to earlier versions of Q-Chem not listed above: 
 R. D. Adamson,  B. Austin,  J. Baker,  G. J. O. Beran,  K. Brandhorst,  
 S. T. Brown,  E. F. C. Byrd,  A. K. Chakraborty,  C.-L. Cheng,  
 Siu Hung Chien,  D. M. Chipman,  D. L. Crittenden,  H. Dachsel,  
 R. J. Doerksen,  A. D. Dutoi,  L. Fusti-Molnar,  W. A. Goddard III,  
 A. Golubeva-Zadorozhnaya,  S. R. Gwaltney,  G. Hawkins,  A. Heyden,  
 S. Hirata,  G. Kedziora,  F. J. Keil,  C. Kelley,  Jihan Kim,  R. A. King,  
 R. Z. Khaliullin,  P. P. Korambath,  W. Kurlancheek,  A. M. Lee,  M. S. Lee,  
 S. V. Levchenko,  Ching Yeh Lin,  D. Liotard,  R. C. Lochan,  I. Lotan,  
 P. E. Maslen,  N. Nair,  D. P. O'Neill,  D. Neuhauser,  E. Neuscamman,  
 C. M. Oana,  R. Olson,  B. Peters,  R. Peverati,  P. A. Pieniazek,  
 Y. M. Rhee,  J. Ritchie,  M. A. Rohrdanz,  E. Rosta,  N. J. Russ,  
 H. F. Schaefer III,  N. E. Schultz,  N. Shenvi,  A. C. Simmonett,  A. Sodt,  
 D. Stuck,  K. S. Thanthiriwatte,  V. Vanovschi,  Tao Wang,  A. Warshel,  
 C. F. Williams,  Q. Wu,  X. Xu,  W. Zhang

 Please cite Q-Chem as follows:
 Y. Shao et al., Mol. Phys. 113, 184-215 (2015)
 DOI: 10.1080/00268976.2014.952696

 Q-Chem 5.2.2 for Intel X86 EM64T Linux

 Parts of Q-Chem use Armadillo 8.300.2 (Tropical Shenanigans).
 http://arma.sourceforge.net/

 Q-Chem begins on Thu May 21 15:07:53 2020  

Host: 
0

     Scratch files written to /tmp/scratch//
 Nov2519 |scratch|qcdevops|jenkins|workspace|build_RNUM 6829   
Processing $rem in /clusterfs/mp/software/qchem/config/preferences:
	 MEM_TOTAL  96000 
NAlpha2: 82
NElect   82
Mult     1
Symmetry turned off for PCM/SM12/SMD calculation

Checking the input file for inconsistencies... 	...done.

--------------------------------------------------------------
User input:
--------------------------------------------------------------
$molecule
0 1
O      5.0797813306     -0.1609607934      2.5327263481
C      5.0550394296      0.9043948192      1.8688451987
C      3.8703148316     -1.2738168484      1.7967557034
O      5.7280383193      1.9381123077      1.9965549474
O      4.1502527347      0.9355388333      0.8464614658
C      3.3765927452     -0.2915193255      0.7503863798
Li      4.8814421220      2.7971767464      0.5463124880
H      3.3274634305     -1.3978578119      2.7186651693
H      4.5984332111     -2.0155952675      1.5144942649
H      2.3336095920     -0.0302486221      0.9123629902
H      3.5277536539     -0.6928148212     -0.2481876552
O      2.4743572458     -2.5471048916      1.0670454504
C      2.8746023876     -3.3412907292      0.1405649544
O      2.1017215864     -4.2664620932     -0.3181600905
O      4.0664658418     -3.2397531280     -0.3643922433
Li      3.5421115379     -4.6815783745     -1.3948253715
$end

$rem
job_type = freq
basis = def2-tzvppd
max_scf_cycles = 200
gen_scfman = true
xc_grid = 3
scf_algorithm = diis
resp_charges = true
symmetry = false
sym_ignore = true
method = wb97xv
solvent_method = smd
ideriv = 1
thresh = 14
$end

$smx
solvent other
$end
--------------------------------------------------------------
 ----------------------------------------------------------------
             Standard Nuclear Orientation (Angstroms)
    I     Atom           X                Y                Z
 ----------------------------------------------------------------
    1      O       5.0797813306    -0.1609607934     2.5327263481
    2      C       5.0550394296     0.9043948192     1.8688451987
    3      C       3.8703148316    -1.2738168484     1.7967557034
    4      O       5.7280383193     1.9381123077     1.9965549474
    5      O       4.1502527347     0.9355388333     0.8464614658
    6      C       3.3765927452    -0.2915193255     0.7503863798
    7      Li      4.8814421220     2.7971767464     0.5463124880
    8      H       3.3274634305    -1.3978578119     2.7186651693
    9      H       4.5984332111    -2.0155952675     1.5144942649
   10      H       2.3336095920    -0.0302486221     0.9123629902
   11      H       3.5277536539    -0.6928148212    -0.2481876552
   12      O       2.4743572458    -2.5471048916     1.0670454504
   13      C       2.8746023876    -3.3412907292     0.1405649544
   14      O       2.1017215864    -4.2664620932    -0.3181600905
   15      O       4.0664658418    -3.2397531280    -0.3643922433
   16      Li      3.5421115379    -4.6815783745    -1.3948253715
 ----------------------------------------------------------------
 Nuclear Repulsion Energy =         595.41137571 hartrees
 There are       41 alpha and       41 beta electrons
 Requested basis set is def2-TZVPPD
 There are 184 shells and 500 basis functions

 Total QAlloc Memory Limit  96000 MB
 Mega-Array Size       188 MB
 MEM_STATIC part       192 MB
 
 Citation of the SMD model:
 Marenich, A.V.; Cramer, C.J.; Truhlar, D.G.
 J. Phys. Chem. B 2009, 113, 6378-6396.
 iSolventCode=           0
 Solvent: other                                                           
 
 vradii
            1           2           3           4           5           6
    1   2.2940000   1.8500000   1.8500000   2.2940000   2.2940000   1.8500000
            7           8           9          10          11          12
    1   2.1476001   1.2000000   1.2000000   1.2000000   1.2000000   2.2940000
           13          14          15          16
    1   1.8500000   2.2940000   2.2940000   2.1476001
 Changing PCM_VDW_RADII to SMD_RADIUS
 Discretize the solute cavity surface with Lebedev spheres
	Using 110 Lebedev grid points for each H atom
	Using 194 Lebedev grid points for other atoms
	Atomic van der Waals radii will be scaled by 1.20
 Remove points where switching function is < 1.0e-08
 Keep 1061 surface tesserae and discard 1707 interior tesserae
 Molecular Surface Area = 238.571 Angst**2
 A cutoff of  1.0D-14 yielded  15158 shell pairs
 There are    112768 function pairs (    143666 Cartesian)
 Smallest overlap matrix eigenvalue = 3.27E-06
 Guess from superposition of atomic densities
 Warning:  Energy on first SCF cycle will be non-variational
 SAD guess density has 82.000000 electrons

 -----------------------------------------------------------------------
  General SCF calculation program by
  Eric Jon Sundstrom, Paul Horn, Yuezhi Mao, Dmitri Zuev, Alec White,
  David Stuck, Shaama M.S., Shane Yost, Joonho Lee, David Small,
  Daniel Levine, Susi Lehtola, Hugh Burton, Evgeny Epifanovsky,
  Bang C. Huynh
 -----------------------------------------------------------------------
 Exchange:     0.1670 Hartree-Fock + 1.0000 wB97X-V + LR-HF
 Correlation:  1.0000 wB97X-V
 Using SG-3 standard quadrature grid
 Nonlocal Correlation:  VV10 with C = 0.0100 and b = 6.00 and scale = 1.00000
 Grid used for NLC:  SG-1 standard quadrature
 
 Citation of the SMD model:
 Marenich, A.V.; Cramer, C.J.; Truhlar, D.G.
 J. Phys. Chem. B 2009, 113, 6378-6396.
 iSolventCode=           0
 Solvent: other                                                           
 
 vradii
            1           2           3           4           5           6
    1   2.2940000   1.8500000   1.8500000   2.2940000   2.2940000   1.8500000
            7           8           9          10          11          12
    1   2.1476001   1.2000000   1.2000000   1.2000000   1.2000000   2.2940000
           13          14          15          16
    1   1.8500000   2.2940000   2.2940000   2.1476001
 using 32 threads for integral computing
 -------------------------------------------------------
 OpenMP Integral computing Module                
 Release: version 1.0, May 2013, Q-Chem Inc. Pittsburgh 
 -------------------------------------------------------
 using 32 threads for integral computing
 -------------------------------------------------------
 OpenMP Integral computing Module                
 Release: version 1.0, May 2013, Q-Chem Inc. Pittsburgh 
 -------------------------------------------------------
 -------------------------------------------------------
 OpenMP BLAS3 based DFT computing Module                
 Release: version 1.0, May 2013, Q-Chem Inc. Pittsburgh 
 -------------------------------------------------------
 -------------------------------------------------------
 OpenMP BLAS3 based DFT computing Module                
 Release: version 1.0, May 2013, Q-Chem Inc. Pittsburgh 
 -------------------------------------------------------
 -------------------------------------------------------
 OpenMP BLAS3 based DFT computing Module                
 Release: version 1.0, May 2013, Q-Chem Inc. Pittsburgh 
 -------------------------------------------------------
 A restricted SCF calculation will be
 performed using DIIS
 SCF converges when DIIS error is below 1.0e-08
 ---------------------------------------
  Cycle       Energy         DIIS error
 ---------------------------------------
    1    -623.0518288961      2.04e-02  
    2    -621.0608555362      4.00e-03  
    3    -621.0503719035      4.41e-03  
    4    -621.4340886125      2.68e-04  
    5    -621.4350140425      2.04e-04  
    6    -621.4358876182      3.50e-05  
    7    -621.4359248084      1.41e-05  
    8    -621.4359300686      5.90e-06  
    9    -621.4359311178      1.75e-06  
   10    -621.4359312537      5.45e-07  
   11    -621.4359312681      2.43e-07  
   12    -621.4359312699      8.57e-08  
   13    -621.4359312703      2.71e-08  
   14    -621.4359312703      9.60e-09  Convergence criterion met
 ---------------------------------------
 SCF time:   CPU 4514.77s  wall 175.00s 
(3)  G-ENP(liq) elect-nuc-pol free energy of system     -621.435931270 a.u.
(4)  G-CDS(liq) cavity-dispersion-solvent structure 
     free energy                                               -3.2523 kcal/mol
(6)  G-S(liq) free energy of system                     -621.441114105 a.u.
 SCF   energy in the final basis set =     -621.4359312703
 Total energy in the final basis set =     -621.4411141046
 
 --------------------------------------------------------------
 
                    Orbital Energies (a.u.)
 --------------------------------------------------------------
 
 Alpha MOs
 -- Occupied --
-19.2782 -19.2333 -19.2100 -19.1469 -19.1350 -19.1321 -10.4488 -10.3653
-10.3464 -10.3355  -2.1345  -2.0613  -1.2859  -1.1708  -1.1678  -1.1555
 -1.0533  -1.0349  -0.9025  -0.7902  -0.7011  -0.6460  -0.6353  -0.6151
 -0.5937  -0.5716  -0.5580  -0.5337  -0.5224  -0.5199  -0.5129  -0.4989
 -0.4602  -0.4299  -0.4228  -0.4185  -0.3807  -0.3576  -0.3527  -0.3441
 -0.3190
 -- Virtual --
  0.0244   0.0325   0.0426   0.0432   0.0467   0.0513   0.0528   0.0652
  0.0876   0.0949   0.1056   0.1145   0.1166   0.1192   0.1226   0.1290
  0.1295   0.1371   0.1391   0.1434   0.1472   0.1523   0.1562   0.1579
  0.1619   0.1636   0.1700   0.1742   0.1781   0.2024   0.2032   0.2054
  0.2136   0.2171   0.2195   0.2248   0.2349   0.2476   0.2545   0.2575
  0.2653   0.2683   0.2819   0.2840   0.2930   0.2961   0.3016   0.3073
  0.3172   0.3226   0.3301   0.3438   0.3456   0.3485   0.3549   0.3605
  0.3643   0.3677   0.3695   0.3740   0.3797   0.3859   0.3963   0.3982
  0.4045   0.4077   0.4121   0.4163   0.4190   0.4289   0.4397   0.4440
  0.4513   0.4552   0.4648   0.4709   0.4759   0.4774   0.4821   0.4922
  0.4938   0.4974   0.5033   0.5122   0.5172   0.5237   0.5276   0.5332
  0.5385   0.5460   0.5526   0.5579   0.5588   0.5662   0.5725   0.5772
  0.5822   0.5889   0.5995   0.6046   0.6146   0.6179   0.6228   0.6318
  0.6335   0.6416   0.6476   0.6553   0.6641   0.6738   0.6772   0.6897
  0.6915   0.6951   0.7060   0.7094   0.7159   0.7219   0.7277   0.7369
  0.7429   0.7474   0.7538   0.7596   0.7687   0.7706   0.7785   0.7853
  0.7890   0.7982   0.8021   0.8119   0.8222   0.8250   0.8311   0.8419
  0.8444   0.8497   0.8591   0.8745   0.8843   0.8854   0.8999   0.9031
  0.9091   0.9227   0.9401   0.9449   0.9593   0.9777   0.9880   0.9972
  1.0077   1.0166   1.0180   1.0273   1.0328   1.0434   1.0617   1.0659
  1.0748   1.0825   1.0949   1.1034   1.1048   1.1099   1.1371   1.1564
  1.1765   1.1874   1.2002   1.2074   1.2258   1.2450   1.2525   1.2679
  1.2702   1.2733   1.2942   1.3038   1.3095   1.3178   1.3274   1.3382
  1.3486   1.3664   1.3707   1.3902   1.4037   1.4050   1.4250   1.4338
  1.4543   1.4751   1.4889   1.4980   1.5161   1.5181   1.5353   1.5507
  1.5804   1.6001   1.6213   1.6365   1.6466   1.6605   1.6759   1.7197
  1.7466   1.7631   1.7931   1.8076   1.8485   1.8665   1.8952   1.9039
  1.9109   1.9237   1.9424   1.9509   1.9686   1.9897   1.9937   2.0146
  2.0329   2.0445   2.0537   2.0760   2.1045   2.1174   2.1327   2.1759
  2.1783   2.2072   2.2244   2.2454   2.2867   2.2986   2.3149   2.3406
  2.3575   2.3641   2.3766   2.4200   2.4297   2.4446   2.4569   2.4620
  2.4917   2.4965   2.5114   2.5322   2.5516   2.5592   2.6107   2.6374
  2.7402   2.7818   2.7829   2.8005   2.8467   2.8927   2.9137   2.9223
  2.9612   2.9716   3.0247   3.0354   3.0488   3.0586   3.0739   3.0891
  3.1083   3.1295   3.1423   3.1559   3.1849   3.2085   3.2516   3.2631
  3.2744   3.2827   3.3178   3.3220   3.3390   3.3451   3.3622   3.3683
  3.3898   3.4050   3.4160   3.4241   3.4332   3.4531   3.4716   3.4916
  3.5005   3.5186   3.5355   3.5475   3.5644   3.5783   3.5874   3.5944
  3.6210   3.6229   3.6255   3.6343   3.6381   3.6474   3.6676   3.6759
  3.6844   3.6989   3.7454   3.7548   3.8057   3.8264   3.8492   3.8663
  3.8963   3.9296   3.9713   3.9906   4.0176   4.0308   4.0436   4.0721
  4.1180   4.1291   4.1500   4.2176   4.2497   4.2801   4.3348   4.3654
  4.3930   4.4191   4.4370   4.4821   4.5057   4.5793   4.5852   4.6645
  4.7069   4.7121   4.7473   4.7798   4.8338   4.8802   4.9052   4.9526
  4.9746   4.9884   5.0258   5.0352   5.0808   5.0926   5.1204   5.1671
  5.2495   5.2532   5.3060   5.3231   5.3301   5.3357   5.3540   5.3656
  5.4102   5.4401   5.4531   5.4657   5.4817   5.5245   5.5720   5.5732
  5.5920   5.6052   5.6311   5.6401   5.6456   5.6638   5.6858   5.7132
  5.7394   5.7604   5.7926   5.8038   5.8318   5.9194   5.9266   5.9514
  5.9846   6.0017   6.0291   6.0404   6.0527   6.0740   6.1349   6.1447
  6.2334   6.2492   6.3040   6.3108   6.3158   6.3180   6.3380   6.3528
  6.3679   6.4026   6.4532   6.4986   6.5679   6.6215   6.6285   6.6518
  6.6631   6.7373   6.7551   6.7792   6.7887   6.8104   6.8349   6.8580
  6.8755   6.9104   6.9624   6.9976   7.0063   7.0197   7.0354   7.0503
  7.0941   7.1240   7.1784   7.2603   7.3457   7.3840   7.4034   7.4686
  7.4716   7.4922   7.5385   7.5712   7.5967   7.6569   7.6881  14.9348
 14.9468  23.5775  23.7333  23.8987  23.9981  44.2628  44.3870  44.4101
 44.4452  44.4667  44.5576
 --------------------------------------------------------------
 
          Ground-State Mulliken Net Atomic Charges

     Atom                 Charge (a.u.)
  ----------------------------------------
      1 O                    -0.416822
      2 C                     0.731920
      3 C                     0.349074
      4 O                    -0.728323
      5 O                    -0.421300
      6 C                    -0.019896
      7 Li                    0.899307
      8 H                     0.132721
      9 H                     0.126906
     10 H                     0.049596
     11 H                     0.053404
     12 O                    -0.614598
     13 C                     0.786085
     14 O                    -0.869402
     15 O                    -0.916773
     16 Li                    0.858101
  ----------------------------------------
  Sum of atomic charges =     0.000000

  Building new vdw surfaces
         Merz-Kollman RESP Net Atomic Charges

     Atom                 Charge (a.u.)
  ----------------------------------------
      1 O                    -0.577507
      2 C                     0.954152
      3 C                     0.132998
      4 O                    -0.741644
      5 O                    -0.610977
      6 C                     0.237653
      7 Li                    0.887551
      8 H                     0.150761
      9 H                     0.161738
     10 H                     0.092543
     11 H                     0.092543
     12 O                    -0.754545
     13 C                     0.903934
     14 O                    -0.879057
     15 O                    -0.885185
     16 Li                    0.835042
  ----------------------------------------
  Sum of atomic charges =     0.000000

  Related Dipole Moment =    12.8307 (X  3.7728 Y 10.5561 Z -6.2419)

 -----------------------------------------------------------------
                    Cartesian Multipole Moments
 -----------------------------------------------------------------
    Charge (ESU x 10^10)
                -0.0000
    Dipole Moment (Debye)
         X       3.8291      Y      10.5900      Z      -6.3219
       Tot      12.9142
    Quadrupole Moments (Debye-Ang)
        XX     -49.9415     XY      23.2317     YY     -40.6291
        XZ     -31.1449     YZ      16.1950     ZZ     -63.6091
    Octopole Moments (Debye-Ang^2)
       XXX    -732.6581    XXY     147.7160    XYY     -57.0540
       YYY     237.7487    XXZ    -225.0042    XYZ      43.1817
       YYZ    -155.4609    XZZ    -270.2302    YZZ      27.6737
       ZZZ    -211.3729
    Hexadecapole Moments (Debye-Ang^3)
      XXXX   -6583.1053   XXXY     805.4874   XXYY    -515.0973
      XYYY     284.2800   YYYY   -1440.0637   XXXZ   -1743.9641
      XXYZ      46.0189   XYYZ    -638.8561   YYYZ     409.3098
      XXZZ   -1410.4025   XYZZ     -39.0432   YYZZ    -356.3772
      XZZZ   -1013.4651   YZZZ     -40.8443   ZZZZ    -811.7604
 -----------------------------------------------------------------
 Calculating analytic gradient of the SCF energy
 Gradient of CDS energy
            1           2           3           4           5           6
    1  -0.0007786   0.0012293   0.0002221  -0.0004031  -0.0001575  -0.0004601
    2  -0.0007647  -0.0000429  -0.0005329   0.0006561  -0.0000894   0.0007614
    3  -0.0004537   0.0014015   0.0007614  -0.0008381  -0.0000881  -0.0009829
            7           8           9          10          11          12
    1   0.0000438   0.0000060  -0.0000112   0.0000908   0.0002185   0.0002771
    2   0.0000146  -0.0000310   0.0000952  -0.0002541  -0.0002066   0.0007964
    3   0.0000388  -0.0000994  -0.0002405   0.0001071   0.0002510   0.0002196
           13          14          15          16
    1  -0.0005638   0.0001081   0.0001705   0.0000083
    2  -0.0000623  -0.0004929   0.0001762  -0.0000230
    3   0.0006233  -0.0004911  -0.0001753  -0.0000337
 Gradient of SCF Energy
            1           2           3           4           5           6
    1   0.0024893  -0.0035371   0.0009186   0.0025141   0.0030801   0.0022322
    2  -0.0007497   0.0044250  -0.0035417  -0.0053832  -0.0004946  -0.0052983
    3   0.0024917  -0.0059451  -0.0022955   0.0055431   0.0034508   0.0041214
            7           8           9          10          11          12
    1  -0.0025082   0.0027999  -0.0018595  -0.0026160  -0.0000111  -0.0029886
    2   0.0052875   0.0028633   0.0059041   0.0020828   0.0012802  -0.0088096
    3  -0.0052575  -0.0019649   0.0016219  -0.0004699  -0.0016072  -0.0025756
           13          14          15          16
    1   0.0001140  -0.0028065  -0.0017742   0.0039530
    2   0.0042295   0.0017526  -0.0000422  -0.0035058
    3   0.0001145   0.0052451   0.0043431  -0.0068157
 Max gradient component =       8.810E-03
 RMS gradient           =       3.597E-03
 Computing fast CPCM-SWIG gradient
 Updating gradient with PCM contributions...
 -- total gradient after adding PCM contribution --
---------------------------------------------------
  Atom         X              Y              Z     
---------------------------------------------------
   1       0.000009       0.000037      -0.000002
   2      -0.000002      -0.000018       0.000012
   3      -0.000006      -0.000084       0.000005
   4       0.000004       0.000014      -0.000007
   5       0.000007       0.000002      -0.000027
   6       0.000008       0.000030       0.000000
   7      -0.000009       0.000001       0.000005
   8       0.000028       0.000029       0.000024
   9      -0.000011       0.000024       0.000006
  10      -0.000003      -0.000005       0.000002
  11       0.000004       0.000009       0.000006
  12      -0.000052       0.000017      -0.000017
  13       0.000040      -0.000071      -0.000034
  14      -0.000003       0.000017       0.000007
  15      -0.000033       0.000007       0.000014
  16       0.000018      -0.000008       0.000005
---------------------------------------------------
 Number of fixed atoms: 0
 Gradient time:  CPU 1133.13 s  wall 47.86 s
 ######################################################
 ######################################################
 # Starting finite difference calculation for IDERIV  #
 Finite diff step size:  1.88973e-03 a.u.
 ----------------------------------------------------------------
             Standard Nuclear Orientation (Angstroms)
    I     Atom           X                Y                Z
 ----------------------------------------------------------------
    1      O       5.0807813306    -0.1609607934     2.5327263481
    2      C       5.0550394296     0.9043948192     1.8688451987
    3      C       3.8703148316    -1.2738168484     1.7967557034
    4      O       5.7280383193     1.9381123077     1.9965549474
    5      O       4.1502527347     0.9355388333     0.8464614658
    6      C       3.3765927452    -0.2915193255     0.7503863798
    7      Li      4.8814421220     2.7971767464     0.5463124880
    8      H       3.3274634305    -1.3978578119     2.7186651693
    9      H       4.5984332111    -2.0155952675     1.5144942649
   10      H       2.3336095920    -0.0302486221     0.9123629902
   11      H       3.5277536539    -0.6928148212    -0.2481876552
   12      O       2.4743572458    -2.5471048916     1.0670454504
   13      C       2.8746023876    -3.3412907292     0.1405649544
   14      O       2.1017215864    -4.2664620932    -0.3181600905
   15      O       4.0664658418    -3.2397531280    -0.3643922433
   16      Li      3.5421115379    -4.6815783745    -1.3948253715
 ----------------------------------------------------------------
 Nuclear Repulsion Energy =         595.39718464 hartrees
 There are       41 alpha and       41 beta electrons
 Discretize the solute cavity surface with Lebedev spheres
	Using 110 Lebedev grid points for each H atom
	Using 194 Lebedev grid points for other atoms
	Atomic van der Waals radii will be scaled by 1.20
 Remove points where switching function is < 1.0e-08
 Keep 1061 surface tesserae and discard 1707 interior tesserae
 Molecular Surface Area = 238.578 Angst**2
 Requested basis set is def2-TZVPPD
 There are 184 shells and 500 basis functions
 A cutoff of  1.0D-14 yielded  15158 shell pairs
 There are    112768 function pairs (    143666 Cartesian)
 Smallest overlap matrix eigenvalue = 3.27E-06
 Guess MOs from SCF MO coefficient file

 -----------------------------------------------------------------------
  General SCF calculation program by
  Eric Jon Sundstrom, Paul Horn, Yuezhi Mao, Dmitri Zuev, Alec White,
  David Stuck, Shaama M.S., Shane Yost, Joonho Lee, David Small,
  Daniel Levine, Susi Lehtola, Hugh Burton, Evgeny Epifanovsky,
  Bang C. Huynh
 -----------------------------------------------------------------------
 Exchange:     0.1670 Hartree-Fock + 1.0000 wB97X-V + LR-HF
 Correlation:  1.0000 wB97X-V
 Using SG-3 standard quadrature grid
 Nonlocal Correlation:  VV10 with C = 0.0100 and b = 6.00 and scale = 1.00000
 Grid used for NLC:  SG-1 standard quadrature
 
 Citation of the SMD model:
 Marenich, A.V.; Cramer, C.J.; Truhlar, D.G.
 J. Phys. Chem. B 2009, 113, 6378-6396.
 iSolventCode=           0
 Solvent: other                                                           
 
 vradii
            1           2           3           4           5           6
    1   2.2940000   1.8500000   1.8500000   2.2940000   2.2940000   1.8500000
            7           8           9          10          11          12
    1   2.1476001   1.2000000   1.2000000   1.2000000   1.2000000   2.2940000
           13          14          15          16
    1   1.8500000   2.2940000   2.2940000   2.1476001
 using 32 threads for integral computing
 -------------------------------------------------------
 OpenMP Integral computing Module                
 Release: version 1.0, May 2013, Q-Chem Inc. Pittsburgh 
 -------------------------------------------------------
 using 32 threads for integral computing
 -------------------------------------------------------
 OpenMP Integral computing Module                
 Release: version 1.0, May 2013, Q-Chem Inc. Pittsburgh 
 -------------------------------------------------------
 -------------------------------------------------------
 OpenMP BLAS3 based DFT computing Module                
 Release: version 1.0, May 2013, Q-Chem Inc. Pittsburgh 
 -------------------------------------------------------
 -------------------------------------------------------
 OpenMP BLAS3 based DFT computing Module                
 Release: version 1.0, May 2013, Q-Chem Inc. Pittsburgh 
 -------------------------------------------------------
 -------------------------------------------------------
 OpenMP BLAS3 based DFT computing Module                
 Release: version 1.0, May 2013, Q-Chem Inc. Pittsburgh 
 -------------------------------------------------------
 A restricted SCF calculation will be
 performed using Roothaan-Hall, DIIS
 SCF converges when DIIS error is below 1.0e-08
 ---------------------------------------
  Cycle       Energy         DIIS error
 ---------------------------------------
    1    -620.7815282703      2.43e-04  Roothaan Step
 ---------------------------------------
  Cycle       Energy         DIIS error
 ---------------------------------------
    1    -621.4319145999      2.86e-04  
    2    -621.4343119430      2.67e-04  
    3    -621.4357922816      6.38e-05  
    4    -621.4359090115      1.75e-05  
    5    -621.4359258555      8.59e-06  
    6    -621.4359289084      3.56e-06  
    7    -621.4359294557      1.50e-06  
    8    -621.4359295559      5.41e-07  
    9    -621.4359295709      2.58e-07  
   10    -621.4359295738      6.01e-08  
   11    -621.4359295740      3.22e-08  
   12    -621.4359295740      9.11e-09  Convergence criterion met
 ---------------------------------------
 SCF time:   CPU 4367.13s  wall 168.00s 
(3)  G-ENP(liq) elect-nuc-pol free energy of system     -621.435929574 a.u.
(4)  G-CDS(liq) cavity-dispersion-solvent structure 
     free energy                                               -3.2532 kcal/mol
(6)  G-S(liq) free energy of system                     -621.441113880 a.u.
 SCF   energy in the final basis set =     -621.4359295740
 Total energy in the final basis set =     -621.4411138797
 
 --------------------------------------------------------------
 
                    Orbital Energies (a.u.)
 --------------------------------------------------------------
 
 Alpha MOs
 -- Occupied --
-19.2783 -19.2332 -19.2099 -19.1469 -19.1350 -19.1321 -10.4488 -10.3654
-10.3464 -10.3355  -2.1344  -2.0613  -1.2858  -1.1708  -1.1678  -1.1554
 -1.0533  -1.0349  -0.9024  -0.7902  -0.7011  -0.6459  -0.6353  -0.6151
 -0.5937  -0.5716  -0.5579  -0.5337  -0.5224  -0.5199  -0.5130  -0.4989
 -0.4602  -0.4298  -0.4227  -0.4185  -0.3808  -0.3577  -0.3527  -0.3441
 -0.3190
 -- Virtual --
  0.0244   0.0325   0.0426   0.0432   0.0467   0.0513   0.0528   0.0652
  0.0876   0.0949   0.1056   0.1145   0.1166   0.1193   0.1225   0.1290
  0.1295   0.1371   0.1391   0.1434   0.1471   0.1523   0.1562   0.1579
  0.1619   0.1636   0.1700   0.1742   0.1781   0.2024   0.2032   0.2054
  0.2136   0.2171   0.2195   0.2248   0.2349   0.2476   0.2545   0.2575
  0.2653   0.2683   0.2819   0.2840   0.2930   0.2961   0.3016   0.3073
  0.3172   0.3226   0.3301   0.3438   0.3456   0.3485   0.3549   0.3605
  0.3644   0.3677   0.3695   0.3740   0.3797   0.3859   0.3963   0.3982
  0.4045   0.4077   0.4121   0.4163   0.4190   0.4289   0.4397   0.4440
  0.4513   0.4552   0.4648   0.4709   0.4759   0.4774   0.4821   0.4922
  0.4938   0.4974   0.5033   0.5123   0.5173   0.5237   0.5277   0.5332
  0.5385   0.5460   0.5526   0.5579   0.5588   0.5662   0.5725   0.5771
  0.5822   0.5890   0.5995   0.6047   0.6146   0.6179   0.6228   0.6318
  0.6335   0.6416   0.6476   0.6553   0.6641   0.6738   0.6772   0.6897
  0.6915   0.6951   0.7061   0.7094   0.7159   0.7219   0.7277   0.7369
  0.7429   0.7474   0.7538   0.7596   0.7687   0.7706   0.7785   0.7853
  0.7889   0.7982   0.8021   0.8119   0.8222   0.8250   0.8311   0.8419
  0.8444   0.8498   0.8591   0.8745   0.8843   0.8854   0.8999   0.9031
  0.9091   0.9227   0.9401   0.9449   0.9593   0.9777   0.9880   0.9972
  1.0077   1.0166   1.0181   1.0272   1.0328   1.0434   1.0616   1.0659
  1.0748   1.0825   1.0949   1.1034   1.1047   1.1098   1.1371   1.1564
  1.1765   1.1873   1.2002   1.2074   1.2257   1.2450   1.2525   1.2678
  1.2702   1.2734   1.2942   1.3037   1.3095   1.3178   1.3274   1.3382
  1.3485   1.3664   1.3707   1.3902   1.4037   1.4050   1.4250   1.4337
  1.4544   1.4751   1.4889   1.4980   1.5160   1.5181   1.5353   1.5507
  1.5804   1.6001   1.6213   1.6366   1.6465   1.6603   1.6759   1.7197
  1.7466   1.7630   1.7930   1.8076   1.8484   1.8664   1.8952   1.9039
  1.9108   1.9237   1.9424   1.9509   1.9686   1.9897   1.9937   2.0146
  2.0328   2.0445   2.0537   2.0761   2.1045   2.1174   2.1327   2.1759
  2.1783   2.2071   2.2244   2.2454   2.2866   2.2985   2.3148   2.3406
  2.3575   2.3640   2.3766   2.4201   2.4297   2.4447   2.4569   2.4621
  2.4917   2.4964   2.5113   2.5322   2.5516   2.5592   2.6106   2.6373
  2.7402   2.7818   2.7827   2.8005   2.8468   2.8926   2.9136   2.9222
  2.9612   2.9716   3.0247   3.0353   3.0487   3.0586   3.0738   3.0891
  3.1083   3.1295   3.1423   3.1559   3.1848   3.2085   3.2516   3.2629
  3.2744   3.2827   3.3177   3.3221   3.3390   3.3450   3.3622   3.3682
  3.3898   3.4050   3.4160   3.4240   3.4332   3.4531   3.4715   3.4916
  3.5005   3.5186   3.5355   3.5475   3.5644   3.5783   3.5874   3.5943
  3.6209   3.6229   3.6254   3.6342   3.6381   3.6474   3.6676   3.6759
  3.6844   3.6989   3.7453   3.7547   3.8057   3.8264   3.8492   3.8663
  3.8963   3.9295   3.9713   3.9903   4.0176   4.0307   4.0435   4.0720
  4.1180   4.1290   4.1499   4.2176   4.2496   4.2800   4.3346   4.3654
  4.3929   4.4190   4.4370   4.4820   4.5057   4.5793   4.5852   4.6642
  4.7068   4.7119   4.7471   4.7798   4.8336   4.8802   4.9052   4.9527
  4.9745   4.9884   5.0257   5.0352   5.0807   5.0926   5.1203   5.1671
  5.2495   5.2532   5.3059   5.3231   5.3302   5.3357   5.3540   5.3655
  5.4101   5.4401   5.4530   5.4657   5.4817   5.5244   5.5720   5.5732
  5.5920   5.6052   5.6308   5.6400   5.6456   5.6638   5.6858   5.7132
  5.7393   5.7603   5.7926   5.8032   5.8317   5.9192   5.9265   5.9513
  5.9846   6.0017   6.0291   6.0403   6.0527   6.0740   6.1348   6.1446
  6.2335   6.2492   6.3041   6.3107   6.3158   6.3179   6.3380   6.3526
  6.3679   6.4028   6.4532   6.4986   6.5678   6.6215   6.6285   6.6517
  6.6629   6.7373   6.7551   6.7792   6.7886   6.8104   6.8347   6.8579
  6.8755   6.9102   6.9624   6.9975   7.0062   7.0196   7.0352   7.0502
  7.0940   7.1240   7.1783   7.2604   7.3456   7.3840   7.4033   7.4686
  7.4715   7.4921   7.5384   7.5711   7.5966   7.6569   7.6880  14.9348
 14.9468  23.5775  23.7332  23.8987  23.9980  44.2628  44.3868  44.4100
 44.4449  44.4667  44.5576
 --------------------------------------------------------------
 
          Ground-State Mulliken Net Atomic Charges

     Atom                 Charge (a.u.)
  ----------------------------------------
      1 O                    -0.417165
      2 C                     0.731810
      3 C                     0.349384
      4 O                    -0.728395
      5 O                    -0.421205
      6 C                    -0.019941
      7 Li                    0.899299
      8 H                     0.132774
      9 H                     0.126850
     10 H                     0.049615
     11 H                     0.053397
     12 O                    -0.614537
     13 C                     0.786153
     14 O                    -0.869378
     15 O                    -0.916758
     16 Li                    0.858099
  ----------------------------------------
  Sum of atomic charges =     0.000000

  Building new vdw surfaces
         Merz-Kollman RESP Net Atomic Charges

     Atom                 Charge (a.u.)
  ----------------------------------------
      1 O                    -0.577417
      2 C                     0.953905
      3 C                     0.132640
      4 O                    -0.741689
      5 O                    -0.610735
      6 C                     0.237407
      7 Li                    0.887508
      8 H                     0.150801
      9 H                     0.161874
     10 H                     0.092632
     11 H                     0.092632
     12 O                    -0.754296
     13 C                     0.903819
     14 O                    -0.879008
     15 O                    -0.885134
     16 Li                    0.835060
  ----------------------------------------
  Sum of atomic charges =     0.000000

  Related Dipole Moment =    12.8269 (X  3.7675 Y 10.5523 Z -6.2438)

 -----------------------------------------------------------------
                    Cartesian Multipole Moments
 -----------------------------------------------------------------
    Charge (ESU x 10^10)
                 0.0000
    Dipole Moment (Debye)
         X       3.8240      Y      10.5861      Z      -6.3240
       Tot      12.9105
    Quadrupole Moments (Debye-Ang)
        XX     -49.9870     XY      23.2182     YY     -40.6227
        XZ     -31.1630     YZ      16.1911     ZZ     -63.6132
    Octopole Moments (Debye-Ang^2)
       XXX    -732.9943    XXY     147.6589    XYY     -57.0537
       YYY     237.6990    XXZ    -225.1312    XYZ      43.1653
       YYZ    -155.4664    XZZ    -270.2764    YZZ      27.6618
       ZZZ    -211.3862
    Hexadecapole Moments (Debye-Ang^3)
      XXXX   -6585.5182   XXXY     805.2124   XXYY    -515.1854
      XYYY     284.1227   YYYY   -1439.9253   XXXZ   -1744.8322
      XXYZ      45.9397   XYYZ    -638.9073   YYYZ     409.2889
      XXZZ   -1410.7551   XYZZ     -39.0892   YYZZ    -356.3751
      XZZZ   -1013.6195   YZZZ     -40.8669   ZZZZ    -811.7945
 -----------------------------------------------------------------
 Calculating analytic gradient of the SCF energy
 Gradient of CDS energy
            1           2           3           4           5           6
    1  -0.0007786   0.0012292   0.0002220  -0.0004031  -0.0001575  -0.0004601
    2  -0.0007651  -0.0000422  -0.0005330   0.0006561  -0.0000894   0.0007614
    3  -0.0004529   0.0014008   0.0007614  -0.0008381  -0.0000881  -0.0009829
            7           8           9          10          11          12
    1   0.0000438   0.0000059  -0.0000111   0.0000908   0.0002185   0.0002771
    2   0.0000146  -0.0000312   0.0000952  -0.0002541  -0.0002066   0.0007964
    3   0.0000388  -0.0000996  -0.0002404   0.0001071   0.0002510   0.0002196
           13          14          15          16
    1  -0.0005638   0.0001081   0.0001705   0.0000083
    2  -0.0000623  -0.0004929   0.0001762  -0.0000230
    3   0.0006233  -0.0004911  -0.0001753  -0.0000337
 Gradient of SCF Energy
            1           2           3           4           5           6
    1   0.0027114  -0.0037311   0.0009385   0.0025424   0.0030924   0.0022125
    2  -0.0007481   0.0044542  -0.0034389  -0.0054805  -0.0004556  -0.0053096
    3   0.0026179  -0.0060002  -0.0022557   0.0055794   0.0033771   0.0041023
            7           8           9          10          11          12
    1  -0.0025148   0.0027695  -0.0018614  -0.0026222  -0.0000141  -0.0029968
    2   0.0052860   0.0028334   0.0058976   0.0020874   0.0012797  -0.0088420
    3  -0.0052642  -0.0019819   0.0016182  -0.0004718  -0.0016109  -0.0026049
           13          14          15          16
    1   0.0000930  -0.0028066  -0.0017639   0.0039512
    2   0.0042439   0.0017407  -0.0000438  -0.0035043
    3   0.0001357   0.0052352   0.0043378  -0.0068139
 Max gradient component =       8.842E-03
 RMS gradient           =       3.611E-03
 Computing fast CPCM-SWIG gradient
 Updating gradient with PCM contributions...
 -- total gradient after adding PCM contribution --
---------------------------------------------------
  Atom         X              Y              Z     
---------------------------------------------------
   1       0.000228       0.000037       0.000126
   2      -0.000191       0.000014      -0.000047
   3       0.000012       0.000017       0.000049
   4       0.000031      -0.000080       0.000029
   5       0.000016       0.000038      -0.000099
   6      -0.000018       0.000017      -0.000021
   7      -0.000013      -0.000000      -0.000000
   8       0.000002      -0.000000       0.000003
   9      -0.000011       0.000018       0.000002
  10      -0.000003      -0.000003      -0.000000
  11       0.000001       0.000011       0.000005
  12      -0.000062      -0.000019      -0.000049
  13       0.000018      -0.000054      -0.000009
  14      -0.000003       0.000004      -0.000004
  15      -0.000024       0.000005       0.000008
  16       0.000018      -0.000007       0.000007
---------------------------------------------------
 Number of fixed atoms: 0
 Gradient time:  CPU 1135.05 s  wall 47.12 s
 ----------------------------------------------------------------
             Standard Nuclear Orientation (Angstroms)
    I     Atom           X                Y                Z
 ----------------------------------------------------------------
    1      O       5.0787813306    -0.1609607934     2.5327263481
    2      C       5.0550394296     0.9043948192     1.8688451987
    3      C       3.8703148316    -1.2738168484     1.7967557034
    4      O       5.7280383193     1.9381123077     1.9965549474
    5      O       4.1502527347     0.9355388333     0.8464614658
    6      C       3.3765927452    -0.2915193255     0.7503863798
    7      Li      4.8814421220     2.7971767464     0.5463124880
    8      H       3.3274634305    -1.3978578119     2.7186651693
    9      H       4.5984332111    -2.0155952675     1.5144942649
   10      H       2.3336095920    -0.0302486221     0.9123629902
   11      H       3.5277536539    -0.6928148212    -0.2481876552
   12      O       2.4743572458    -2.5471048916     1.0670454504
   13      C       2.8746023876    -3.3412907292     0.1405649544
   14      O       2.1017215864    -4.2664620932    -0.3181600905
   15      O       4.0664658418    -3.2397531280    -0.3643922433
   16      Li      3.5421115379    -4.6815783745    -1.3948253715
 ----------------------------------------------------------------
 Nuclear Repulsion Energy =         595.42555219 hartrees
 There are       41 alpha and       41 beta electrons
 Discretize the solute cavity surface with Lebedev spheres
	Using 110 Lebedev grid points for each H atom
	Using 194 Lebedev grid points for other atoms
	Atomic van der Waals radii will be scaled by 1.20
 Remove points where switching function is < 1.0e-08
 Keep 1061 surface tesserae and discard 1707 interior tesserae
 Molecular Surface Area = 238.564 Angst**2
 Requested basis set is def2-TZVPPD
 There are 184 shells and 500 basis functions
 A cutoff of  1.0D-14 yielded  15158 shell pairs
 There are    112768 function pairs (    143666 Cartesian)
 Smallest overlap matrix eigenvalue = 3.27E-06
 Guess MOs from SCF MO coefficient file

 -----------------------------------------------------------------------
  General SCF calculation program by
  Eric Jon Sundstrom, Paul Horn, Yuezhi Mao, Dmitri Zuev, Alec White,
  David Stuck, Shaama M.S., Shane Yost, Joonho Lee, David Small,
  Daniel Levine, Susi Lehtola, Hugh Burton, Evgeny Epifanovsky,
  Bang C. Huynh
 -----------------------------------------------------------------------
 Exchange:     0.1670 Hartree-Fock + 1.0000 wB97X-V + LR-HF
 Correlation:  1.0000 wB97X-V
 Using SG-3 standard quadrature grid
 Nonlocal Correlation:  VV10 with C = 0.0100 and b = 6.00 and scale = 1.00000
 Grid used for NLC:  SG-1 standard quadrature
 
 Citation of the SMD model:
 Marenich, A.V.; Cramer, C.J.; Truhlar, D.G.
 J. Phys. Chem. B 2009, 113, 6378-6396.
 iSolventCode=           0
 Solvent: other                                                           
 
 vradii
            1           2           3           4           5           6
    1   2.2940000   1.8500000   1.8500000   2.2940000   2.2940000   1.8500000
            7           8           9          10          11          12
    1   2.1476001   1.2000000   1.2000000   1.2000000   1.2000000   2.2940000
           13          14          15          16
    1   1.8500000   2.2940000   2.2940000   2.1476001
 using 32 threads for integral computing
 -------------------------------------------------------
 OpenMP Integral computing Module                
 Release: version 1.0, May 2013, Q-Chem Inc. Pittsburgh 
 -------------------------------------------------------
 using 32 threads for integral computing
 -------------------------------------------------------
 OpenMP Integral computing Module                
 Release: version 1.0, May 2013, Q-Chem Inc. Pittsburgh 
 -------------------------------------------------------
 -------------------------------------------------------
 OpenMP BLAS3 based DFT computing Module                
 Release: version 1.0, May 2013, Q-Chem Inc. Pittsburgh 
 -------------------------------------------------------
 -------------------------------------------------------
 OpenMP BLAS3 based DFT computing Module                
 Release: version 1.0, May 2013, Q-Chem Inc. Pittsburgh 
 -------------------------------------------------------
 -------------------------------------------------------
 OpenMP BLAS3 based DFT computing Module                
 Release: version 1.0, May 2013, Q-Chem Inc. Pittsburgh 
 -------------------------------------------------------
 A restricted SCF calculation will be
 performed using Roothaan-Hall, DIIS
 SCF converges when DIIS error is below 1.0e-08
 ---------------------------------------
  Cycle       Energy         DIIS error
 ---------------------------------------
    1    -620.7818368731      2.43e-04  Roothaan Step
 ---------------------------------------
  Cycle       Energy         DIIS error
 ---------------------------------------
    1    -621.4319148179      2.86e-04  
    2    -621.4343162530      2.66e-04  
    3    -621.4357946499      6.38e-05  
    4    -621.4359118515      1.75e-05  
    5    -621.4359288152      8.58e-06  
    6    -621.4359318837      3.56e-06  
    7    -621.4359324338      1.50e-06  
    8    -621.4359325343      5.41e-07  
    9    -621.4359325494      2.59e-07  
   10    -621.4359325522      6.02e-08  
   11    -621.4359325525      3.21e-08  
   12    -621.4359325525      9.13e-09  Convergence criterion met
 ---------------------------------------
 SCF time:   CPU 4390.90s  wall 169.00s 
(3)  G-ENP(liq) elect-nuc-pol free energy of system     -621.435932552 a.u.
(4)  G-CDS(liq) cavity-dispersion-solvent structure 
     free energy                                               -3.2514 kcal/mol
(6)  G-S(liq) free energy of system                     -621.441113915 a.u.
 SCF   energy in the final basis set =     -621.4359325525
 Total energy in the final basis set =     -621.4411139153
 
 --------------------------------------------------------------
 
                    Orbital Energies (a.u.)
 --------------------------------------------------------------
 
 Alpha MOs
 -- Occupied --
-19.2782 -19.2334 -19.2101 -19.1468 -19.1350 -19.1321 -10.4489 -10.3653
-10.3464 -10.3355  -2.1345  -2.0613  -1.2859  -1.1708  -1.1677  -1.1556
 -1.0533  -1.0349  -0.9025  -0.7902  -0.7012  -0.6460  -0.6353  -0.6151
 -0.5936  -0.5716  -0.5580  -0.5337  -0.5224  -0.5199  -0.5129  -0.4989
 -0.4602  -0.4300  -0.4228  -0.4185  -0.3807  -0.3576  -0.3526  -0.3441
 -0.3190
 -- Virtual --
  0.0244   0.0325   0.0426   0.0432   0.0467   0.0513   0.0528   0.0652
  0.0876   0.0949   0.1056   0.1145   0.1166   0.1192   0.1226   0.1290
  0.1295   0.1371   0.1391   0.1434   0.1472   0.1523   0.1562   0.1579
  0.1619   0.1636   0.1700   0.1742   0.1781   0.2024   0.2032   0.2054
  0.2136   0.2171   0.2195   0.2248   0.2349   0.2476   0.2545   0.2575
  0.2653   0.2683   0.2819   0.2840   0.2930   0.2961   0.3016   0.3074
  0.3172   0.3226   0.3301   0.3438   0.3456   0.3485   0.3549   0.3605
  0.3643   0.3677   0.3695   0.3740   0.3797   0.3859   0.3963   0.3982
  0.4045   0.4077   0.4121   0.4163   0.4190   0.4289   0.4397   0.4440
  0.4513   0.4552   0.4648   0.4710   0.4759   0.4774   0.4821   0.4922
  0.4938   0.4974   0.5032   0.5122   0.5172   0.5237   0.5276   0.5332
  0.5385   0.5460   0.5526   0.5580   0.5588   0.5662   0.5726   0.5772
  0.5823   0.5889   0.5995   0.6046   0.6146   0.6179   0.6228   0.6319
  0.6335   0.6417   0.6476   0.6554   0.6641   0.6738   0.6772   0.6897
  0.6915   0.6951   0.7060   0.7093   0.7159   0.7219   0.7277   0.7369
  0.7428   0.7474   0.7538   0.7596   0.7687   0.7706   0.7785   0.7853
  0.7890   0.7982   0.8021   0.8119   0.8222   0.8250   0.8311   0.8419
  0.8444   0.8497   0.8591   0.8745   0.8843   0.8855   0.8999   0.9031
  0.9091   0.9227   0.9401   0.9450   0.9593   0.9777   0.9881   0.9972
  1.0077   1.0167   1.0180   1.0273   1.0328   1.0434   1.0617   1.0660
  1.0748   1.0825   1.0949   1.1033   1.1048   1.1099   1.1372   1.1565
  1.1765   1.1874   1.2002   1.2075   1.2258   1.2450   1.2526   1.2679
  1.2702   1.2733   1.2943   1.3038   1.3095   1.3178   1.3275   1.3382
  1.3486   1.3664   1.3707   1.3903   1.4037   1.4050   1.4250   1.4338
  1.4543   1.4751   1.4889   1.4981   1.5161   1.5181   1.5353   1.5507
  1.5804   1.6001   1.6214   1.6365   1.6466   1.6607   1.6759   1.7197
  1.7466   1.7632   1.7932   1.8076   1.8485   1.8665   1.8952   1.9038
  1.9109   1.9237   1.9425   1.9509   1.9686   1.9898   1.9938   2.0147
  2.0331   2.0445   2.0537   2.0760   2.1045   2.1174   2.1326   2.1759
  2.1783   2.2073   2.2244   2.2454   2.2867   2.2987   2.3149   2.3407
  2.3574   2.3642   2.3767   2.4200   2.4298   2.4446   2.4569   2.4620
  2.4918   2.4966   2.5114   2.5323   2.5516   2.5592   2.6108   2.6374
  2.7403   2.7818   2.7831   2.8005   2.8466   2.8928   2.9137   2.9223
  2.9612   2.9717   3.0247   3.0354   3.0489   3.0586   3.0739   3.0892
  3.1084   3.1295   3.1423   3.1559   3.1850   3.2085   3.2517   3.2632
  3.2745   3.2828   3.3179   3.3219   3.3390   3.3452   3.3622   3.3683
  3.3899   3.4051   3.4160   3.4242   3.4332   3.4531   3.4716   3.4916
  3.5005   3.5186   3.5355   3.5476   3.5644   3.5782   3.5874   3.5944
  3.6210   3.6229   3.6256   3.6343   3.6381   3.6474   3.6676   3.6759
  3.6844   3.6990   3.7454   3.7549   3.8058   3.8264   3.8493   3.8664
  3.8964   3.9298   3.9713   3.9909   4.0177   4.0309   4.0436   4.0723
  4.1181   4.1292   4.1501   4.2177   4.2498   4.2803   4.3350   4.3654
  4.3932   4.4192   4.4369   4.4821   4.5057   4.5793   4.5852   4.6647
  4.7069   4.7124   4.7475   4.7798   4.8340   4.8801   4.9052   4.9525
  4.9746   4.9884   5.0259   5.0352   5.0808   5.0927   5.1204   5.1671
  5.2494   5.2532   5.3060   5.3231   5.3300   5.3357   5.3541   5.3656
  5.4102   5.4402   5.4532   5.4658   5.4817   5.5245   5.5719   5.5732
  5.5921   5.6053   5.6315   5.6401   5.6456   5.6638   5.6858   5.7132
  5.7394   5.7605   5.7926   5.8043   5.8319   5.9197   5.9267   5.9514
  5.9846   6.0017   6.0291   6.0404   6.0527   6.0741   6.1349   6.1448
  6.2334   6.2492   6.3040   6.3108   6.3158   6.3181   6.3381   6.3530
  6.3679   6.4024   6.4533   6.4986   6.5680   6.6216   6.6285   6.6518
  6.6633   6.7373   6.7551   6.7792   6.7887   6.8104   6.8350   6.8580
  6.8755   6.9106   6.9624   6.9976   7.0064   7.0198   7.0355   7.0503
  7.0941   7.1241   7.1784   7.2602   7.3457   7.3840   7.4034   7.4686
  7.4717   7.4922   7.5386   7.5714   7.5967   7.6570   7.6881  14.9348
 14.9468  23.5776  23.7335  23.8987  23.9982  44.2628  44.3872  44.4101
 44.4454  44.4668  44.5576
 --------------------------------------------------------------
 
          Ground-State Mulliken Net Atomic Charges

     Atom                 Charge (a.u.)
  ----------------------------------------
      1 O                    -0.416478
      2 C                     0.732030
      3 C                     0.348762
      4 O                    -0.728251
      5 O                    -0.421393
      6 C                    -0.019848
      7 Li                    0.899314
      8 H                     0.132668
      9 H                     0.126962
     10 H                     0.049577
     11 H                     0.053411
     12 O                    -0.614659
     13 C                     0.786017
     14 O                    -0.869426
     15 O                    -0.916788
     16 Li                    0.858104
  ----------------------------------------
  Sum of atomic charges =     0.000000

  Building new vdw surfaces
         Merz-Kollman RESP Net Atomic Charges

     Atom                 Charge (a.u.)
  ----------------------------------------
      1 O                    -0.577597
      2 C                     0.954398
      3 C                     0.133356
      4 O                    -0.741599
      5 O                    -0.611219
      6 C                     0.237901
      7 Li                    0.887593
      8 H                     0.150721
      9 H                     0.161602
     10 H                     0.092453
     11 H                     0.092453
     12 O                    -0.754794
     13 C                     0.904048
     14 O                    -0.879107
     15 O                    -0.885235
     16 Li                    0.835025
  ----------------------------------------
  Sum of atomic charges =     0.000000

  Related Dipole Moment =    12.8344 (X  3.7781 Y 10.5599 Z -6.2399)

 -----------------------------------------------------------------
                    Cartesian Multipole Moments
 -----------------------------------------------------------------
    Charge (ESU x 10^10)
                -0.0000
    Dipole Moment (Debye)
         X       3.8343      Y      10.5939      Z      -6.3199
       Tot      12.9179
    Quadrupole Moments (Debye-Ang)
        XX     -49.8960     XY      23.2450     YY     -40.6353
        XZ     -31.1268     YZ      16.1989     ZZ     -63.6049
    Octopole Moments (Debye-Ang^2)
       XXX    -732.3220    XXY     147.7730    XYY     -57.0539
       YYY     237.7979    XXZ    -224.8775    XYZ      43.1982
       YYZ    -155.4555    XZZ    -270.1840    YZZ      27.6855
       ZZZ    -211.3597
    Hexadecapole Moments (Debye-Ang^3)
      XXXX   -6580.6928   XXXY     805.7614   XXYY    -515.0076
      XYYY     284.4356   YYYY   -1440.1992   XXXZ   -1743.0972
      XXYZ      46.0986   XYYZ    -638.8052   YYYZ     409.3312
      XXZZ   -1410.0502   XYZZ     -38.9972   YYZZ    -356.3792
      XZZZ   -1013.3110   YZZZ     -40.8216   ZZZZ    -811.7265
 -----------------------------------------------------------------
 Calculating analytic gradient of the SCF energy
 Gradient of CDS energy
            1           2           3           4           5           6
    1  -0.0007786   0.0012294   0.0002221  -0.0004031  -0.0001575  -0.0004601
    2  -0.0007642  -0.0000435  -0.0005329   0.0006561  -0.0000894   0.0007614
    3  -0.0004546   0.0014022   0.0007614  -0.0008381  -0.0000881  -0.0009828
            7           8           9          10          11          12
    1   0.0000438   0.0000060  -0.0000114   0.0000908   0.0002185   0.0002771
    2   0.0000146  -0.0000307   0.0000951  -0.0002541  -0.0002066   0.0007964
    3   0.0000388  -0.0000992  -0.0002405   0.0001071   0.0002510   0.0002196
           13          14          15          16
    1  -0.0005638   0.0001081   0.0001705   0.0000083
    2  -0.0000623  -0.0004929   0.0001762  -0.0000230
    3   0.0006233  -0.0004911  -0.0001753  -0.0000337
 Gradient of SCF Energy
            1           2           3           4           5           6
    1   0.0022669  -0.0033433   0.0008993   0.0024860   0.0030679   0.0022519
    2  -0.0007521   0.0043964  -0.0036442  -0.0052859  -0.0005337  -0.0052869
    3   0.0023657  -0.0058906  -0.0023349   0.0055067   0.0035248   0.0041405
            7           8           9          10          11          12
    1  -0.0025016   0.0028303  -0.0018578  -0.0026099  -0.0000080  -0.0029803
    2   0.0052891   0.0028933   0.0059106   0.0020783   0.0012807  -0.0087775
    3  -0.0052508  -0.0019481   0.0016257  -0.0004680  -0.0016035  -0.0025467
           13          14          15          16
    1   0.0001347  -0.0028065  -0.0017844   0.0039548
    2   0.0042156   0.0017644  -0.0000407  -0.0035073
    3   0.0000937   0.0052549   0.0043484  -0.0068176
 Max gradient component =       8.777E-03
 RMS gradient           =       3.584E-03
 Computing fast CPCM-SWIG gradient
 Updating gradient with PCM contributions...
 -- total gradient after adding PCM contribution --
---------------------------------------------------
  Atom         X              Y              Z     
---------------------------------------------------
   1      -0.000210       0.000035      -0.000130
   2       0.000187      -0.000050       0.000071
   3      -0.000024      -0.000185      -0.000040
   4      -0.000022       0.000108      -0.000043
   5      -0.000002      -0.000035       0.000046
   6       0.000035       0.000043       0.000021
   7      -0.000005       0.000002       0.000010
   8       0.000055       0.000058       0.000045
   9      -0.000012       0.000029       0.000010
  10      -0.000003      -0.000008       0.000004
  11       0.000006       0.000007       0.000007
  12      -0.000042       0.000053       0.000014
  13       0.000061      -0.000088      -0.000058
  14      -0.000002       0.000030       0.000018
  15      -0.000041       0.000009       0.000020
  16       0.000019      -0.000010       0.000004
---------------------------------------------------
 Number of fixed atoms: 0
 Gradient time:  CPU 1129.56 s  wall 46.74 s
 ----------------------------------------------------------------
             Standard Nuclear Orientation (Angstroms)
    I     Atom           X                Y                Z
 ----------------------------------------------------------------
    1      O       5.0797813306    -0.1599607934     2.5327263481
    2      C       5.0550394296     0.9043948192     1.8688451987
    3      C       3.8703148316    -1.2738168484     1.7967557034
    4      O       5.7280383193     1.9381123077     1.9965549474
    5      O       4.1502527347     0.9355388333     0.8464614658
    6      C       3.3765927452    -0.2915193255     0.7503863798
    7      Li      4.8814421220     2.7971767464     0.5463124880
    8      H       3.3274634305    -1.3978578119     2.7186651693
    9      H       4.5984332111    -2.0155952675     1.5144942649
   10      H       2.3336095920    -0.0302486221     0.9123629902
   11      H       3.5277536539    -0.6928148212    -0.2481876552
   12      O       2.4743572458    -2.5471048916     1.0670454504
   13      C       2.8746023876    -3.3412907292     0.1405649544
   14      O       2.1017215864    -4.2664620932    -0.3181600905
   15      O       4.0664658418    -3.2397531280    -0.3643922433
   16      Li      3.5421115379    -4.6815783745    -1.3948253715
 ----------------------------------------------------------------
 Nuclear Repulsion Energy =         595.42452173 hartrees
 There are       41 alpha and       41 beta electrons
 Discretize the solute cavity surface with Lebedev spheres
	Using 110 Lebedev grid points for each H atom
	Using 194 Lebedev grid points for other atoms
	Atomic van der Waals radii will be scaled by 1.20
 Remove points where switching function is < 1.0e-08
 Keep 1061 surface tesserae and discard 1707 interior tesserae
 Molecular Surface Area = 238.564 Angst**2
 Requested basis set is def2-TZVPPD
 There are 184 shells and 500 basis functions
 A cutoff of  1.0D-14 yielded  15158 shell pairs
 There are    112768 function pairs (    143666 Cartesian)
 Smallest overlap matrix eigenvalue = 3.27E-06
 Guess MOs from SCF MO coefficient file

 -----------------------------------------------------------------------
  General SCF calculation program by
  Eric Jon Sundstrom, Paul Horn, Yuezhi Mao, Dmitri Zuev, Alec White,
  David Stuck, Shaama M.S., Shane Yost, Joonho Lee, David Small,
  Daniel Levine, Susi Lehtola, Hugh Burton, Evgeny Epifanovsky,
  Bang C. Huynh
 -----------------------------------------------------------------------
 Exchange:     0.1670 Hartree-Fock + 1.0000 wB97X-V + LR-HF
 Correlation:  1.0000 wB97X-V
 Using SG-3 standard quadrature grid
 Nonlocal Correlation:  VV10 with C = 0.0100 and b = 6.00 and scale = 1.00000
 Grid used for NLC:  SG-1 standard quadrature
 
 Citation of the SMD model:
 Marenich, A.V.; Cramer, C.J.; Truhlar, D.G.
 J. Phys. Chem. B 2009, 113, 6378-6396.
 iSolventCode=           0
 Solvent: other                                                           
 
 vradii
            1           2           3           4           5           6
    1   2.2940000   1.8500000   1.8500000   2.2940000   2.2940000   1.8500000
            7           8           9          10          11          12
    1   2.1476001   1.2000000   1.2000000   1.2000000   1.2000000   2.2940000
           13          14          15          16
    1   1.8500000   2.2940000   2.2940000   2.1476001
 using 32 threads for integral computing
 -------------------------------------------------------
 OpenMP Integral computing Module                
 Release: version 1.0, May 2013, Q-Chem Inc. Pittsburgh 
 -------------------------------------------------------
 using 32 threads for integral computing
 -------------------------------------------------------
 OpenMP Integral computing Module                
 Release: version 1.0, May 2013, Q-Chem Inc. Pittsburgh 
 -------------------------------------------------------
 -------------------------------------------------------
 OpenMP BLAS3 based DFT computing Module                
 Release: version 1.0, May 2013, Q-Chem Inc. Pittsburgh 
 -------------------------------------------------------
 -------------------------------------------------------
 OpenMP BLAS3 based DFT computing Module                
 Release: version 1.0, May 2013, Q-Chem Inc. Pittsburgh 
 -------------------------------------------------------
 -------------------------------------------------------
 OpenMP BLAS3 based DFT computing Module                
 Release: version 1.0, May 2013, Q-Chem Inc. Pittsburgh 
 -------------------------------------------------------
 A restricted SCF calculation will be
 performed using Roothaan-Hall, DIIS
 SCF converges when DIIS error is below 1.0e-08
 ---------------------------------------
  Cycle       Energy         DIIS error
 ---------------------------------------
    1    -620.7812326952      2.44e-04  Roothaan Step
 ---------------------------------------
  Cycle       Energy         DIIS error
 ---------------------------------------
    1    -621.4319232824      2.85e-04  
    2    -621.4343211032      2.66e-04  
    3    -621.4357918081      6.39e-05  
    4    -621.4359084303      1.75e-05  
    5    -621.4359251864      8.61e-06  
    6    -621.4359282330      3.58e-06  
    7    -621.4359287806      1.51e-06  
    8    -621.4359288814      5.41e-07  
    9    -621.4359288964      2.57e-07  
   10    -621.4359288993      5.96e-08  
   11    -621.4359288995      3.21e-08  
   12    -621.4359288996      9.06e-09  Convergence criterion met
 ---------------------------------------
 SCF time:   CPU 4366.62s  wall 168.00s 
(3)  G-ENP(liq) elect-nuc-pol free energy of system     -621.435928900 a.u.
(4)  G-CDS(liq) cavity-dispersion-solvent structure 
     free energy                                               -3.2532 kcal/mol
(6)  G-S(liq) free energy of system                     -621.441113176 a.u.
 SCF   energy in the final basis set =     -621.4359288996
 Total energy in the final basis set =     -621.4411131758
 
 --------------------------------------------------------------
 
                    Orbital Energies (a.u.)
 --------------------------------------------------------------
 
 Alpha MOs
 -- Occupied --
-19.2781 -19.2332 -19.2098 -19.1469 -19.1350 -19.1321 -10.4486 -10.3654
-10.3464 -10.3355  -2.1344  -2.0613  -1.2860  -1.1708  -1.1678  -1.1556
 -1.0533  -1.0349  -0.9025  -0.7902  -0.7011  -0.6460  -0.6353  -0.6151
 -0.5937  -0.5716  -0.5580  -0.5337  -0.5224  -0.5199  -0.5130  -0.4989
 -0.4602  -0.4298  -0.4227  -0.4186  -0.3808  -0.3577  -0.3527  -0.3442
 -0.3191
 -- Virtual --
  0.0244   0.0325   0.0426   0.0432   0.0467   0.0513   0.0528   0.0652
  0.0875   0.0949   0.1056   0.1145   0.1166   0.1193   0.1226   0.1290
  0.1295   0.1371   0.1391   0.1434   0.1472   0.1523   0.1562   0.1579
  0.1619   0.1636   0.1700   0.1742   0.1781   0.2024   0.2032   0.2054
  0.2136   0.2171   0.2195   0.2248   0.2349   0.2476   0.2545   0.2575
  0.2653   0.2683   0.2819   0.2840   0.2930   0.2961   0.3016   0.3073
  0.3172   0.3226   0.3301   0.3438   0.3456   0.3485   0.3549   0.3606
  0.3643   0.3677   0.3695   0.3740   0.3797   0.3859   0.3964   0.3982
  0.4045   0.4077   0.4121   0.4163   0.4190   0.4289   0.4397   0.4440
  0.4513   0.4552   0.4648   0.4709   0.4758   0.4774   0.4822   0.4923
  0.4938   0.4975   0.5033   0.5123   0.5173   0.5237   0.5277   0.5332
  0.5385   0.5460   0.5526   0.5580   0.5588   0.5663   0.5726   0.5772
  0.5822   0.5889   0.5996   0.6046   0.6146   0.6179   0.6228   0.6319
  0.6336   0.6416   0.6477   0.6553   0.6641   0.6739   0.6772   0.6897
  0.6915   0.6951   0.7060   0.7094   0.7159   0.7219   0.7277   0.7369
  0.7429   0.7474   0.7538   0.7596   0.7687   0.7706   0.7785   0.7853
  0.7890   0.7982   0.8021   0.8119   0.8222   0.8250   0.8311   0.8419
  0.8444   0.8498   0.8591   0.8745   0.8843   0.8854   0.8999   0.9031
  0.9091   0.9227   0.9401   0.9450   0.9593   0.9777   0.9880   0.9972
  1.0077   1.0167   1.0180   1.0273   1.0329   1.0434   1.0616   1.0659
  1.0748   1.0825   1.0949   1.1034   1.1047   1.1098   1.1372   1.1565
  1.1765   1.1874   1.2002   1.2074   1.2258   1.2450   1.2526   1.2679
  1.2702   1.2734   1.2942   1.3038   1.3096   1.3179   1.3275   1.3382
  1.3485   1.3664   1.3707   1.3902   1.4037   1.4050   1.4250   1.4338
  1.4543   1.4752   1.4889   1.4980   1.5160   1.5182   1.5353   1.5507
  1.5804   1.6001   1.6213   1.6366   1.6466   1.6607   1.6758   1.7197
  1.7466   1.7631   1.7931   1.8076   1.8484   1.8667   1.8952   1.9039
  1.9109   1.9238   1.9424   1.9510   1.9686   1.9897   1.9937   2.0146
  2.0330   2.0445   2.0537   2.0761   2.1045   2.1174   2.1327   2.1759
  2.1783   2.2073   2.2244   2.2454   2.2867   2.2987   2.3149   2.3406
  2.3575   2.3641   2.3767   2.4202   2.4291   2.4447   2.4568   2.4620
  2.4917   2.4965   2.5113   2.5323   2.5518   2.5592   2.6109   2.6374
  2.7402   2.7818   2.7830   2.8005   2.8467   2.8926   2.9136   2.9222
  2.9612   2.9717   3.0247   3.0354   3.0488   3.0586   3.0739   3.0892
  3.1085   3.1295   3.1424   3.1558   3.1849   3.2085   3.2516   3.2631
  3.2744   3.2827   3.3179   3.3219   3.3393   3.3451   3.3622   3.3683
  3.3899   3.4049   3.4160   3.4241   3.4331   3.4531   3.4716   3.4916
  3.5006   3.5186   3.5356   3.5476   3.5644   3.5785   3.5876   3.5945
  3.6210   3.6229   3.6257   3.6344   3.6381   3.6474   3.6676   3.6760
  3.6844   3.6990   3.7453   3.7548   3.8058   3.8264   3.8492   3.8664
  3.8964   3.9296   3.9713   3.9904   4.0176   4.0307   4.0436   4.0723
  4.1181   4.1291   4.1499   4.2180   4.2497   4.2803   4.3348   4.3653
  4.3931   4.4191   4.4369   4.4820   4.5057   4.5793   4.5852   4.6644
  4.7068   4.7119   4.7471   4.7798   4.8337   4.8798   4.9052   4.9521
  4.9745   4.9883   5.0258   5.0353   5.0808   5.0927   5.1204   5.1671
  5.2496   5.2532   5.3059   5.3231   5.3302   5.3358   5.3540   5.3655
  5.4102   5.4401   5.4531   5.4656   5.4817   5.5245   5.5720   5.5733
  5.5920   5.6054   5.6313   5.6401   5.6456   5.6638   5.6858   5.7134
  5.7395   5.7604   5.7926   5.8038   5.8319   5.9196   5.9268   5.9517
  5.9846   6.0018   6.0291   6.0404   6.0527   6.0740   6.1348   6.1447
  6.2336   6.2494   6.3049   6.3108   6.3159   6.3183   6.3382   6.3533
  6.3679   6.4033   6.4532   6.4986   6.5682   6.6215   6.6287   6.6518
  6.6637   6.7376   6.7551   6.7792   6.7887   6.8105   6.8348   6.8580
  6.8755   6.9105   6.9626   6.9975   7.0062   7.0197   7.0354   7.0503
  7.0941   7.1242   7.1787   7.2605   7.3456   7.3839   7.4042   7.4686
  7.4718   7.4921   7.5385   7.5715   7.5966   7.6581   7.6884  14.9349
 14.9468  23.5779  23.7332  23.8987  24.0009  44.2628  44.3869  44.4100
 44.4456  44.4667  44.5576
 --------------------------------------------------------------
 
          Ground-State Mulliken Net Atomic Charges

     Atom                 Charge (a.u.)
  ----------------------------------------
      1 O                    -0.416644
      2 C                     0.731857
      3 C                     0.349383
      4 O                    -0.728833
      5 O                    -0.421398
      6 C                    -0.019797
      7 Li                    0.899286
      8 H                     0.132641
      9 H                     0.126883
     10 H                     0.049589
     11 H                     0.053426
     12 O                    -0.614511
     13 C                     0.786127
     14 O                    -0.869367
     15 O                    -0.916747
     16 Li                    0.858104
  ----------------------------------------
  Sum of atomic charges =     0.000000

  Building new vdw surfaces
         Merz-Kollman RESP Net Atomic Charges

     Atom                 Charge (a.u.)
  ----------------------------------------
      1 O                    -0.577455
      2 C                     0.954754
      3 C                     0.132375
      4 O                    -0.742199
      5 O                    -0.611366
      6 C                     0.238127
      7 Li                    0.887515
      8 H                     0.150963
      9 H                     0.161855
     10 H                     0.092455
     11 H                     0.092455
     12 O                    -0.754295
     13 C                     0.903857
     14 O                    -0.878988
     15 O                    -0.885108
     16 Li                    0.835055
  ----------------------------------------
  Sum of atomic charges =     0.000000

  Related Dipole Moment =    12.8203 (X  3.7686 Y 10.5447 Z -6.2424)

 -----------------------------------------------------------------
                    Cartesian Multipole Moments
 -----------------------------------------------------------------
    Charge (ESU x 10^10)
                 0.0000
    Dipole Moment (Debye)
         X       3.8248      Y      10.5786      Z      -6.3224
       Tot      12.9038
    Quadrupole Moments (Debye-Ang)
        XX     -49.9762     XY      23.1823     YY     -40.6226
        XZ     -31.1525     YZ      16.1799     ZZ     -63.6068
    Octopole Moments (Debye-Ang^2)
       XXX    -732.8868    XXY     147.4640    XYY     -57.0637
       YYY     237.6432    XXZ    -225.0618    XYZ      43.1057
       YYZ    -155.4716    XZZ    -270.2338    YZZ      27.6294
       ZZZ    -211.3622
    Hexadecapole Moments (Debye-Ang^3)
      XXXX   -6584.5385   XXXY     804.0815   XXYY    -515.2588
      XYYY     283.8770   YYYY   -1439.8690   XXXZ   -1744.3409
      XXYZ      45.5966   XYYZ    -638.9320   YYYZ     409.2166
      XXZZ   -1410.4712   XYZZ     -39.2581   YYZZ    -356.3776
      XZZZ   -1013.4449   YZZZ     -40.9695   ZZZZ    -811.6995
 -----------------------------------------------------------------
 Calculating analytic gradient of the SCF energy
 Gradient of CDS energy
            1           2           3           4           5           6
    1  -0.0007791   0.0012298   0.0002225  -0.0004031  -0.0001575  -0.0004601
    2  -0.0007615  -0.0000461  -0.0005330   0.0006561  -0.0000894   0.0007615
    3  -0.0004564   0.0014041   0.0007618  -0.0008381  -0.0000881  -0.0009829
            7           8           9          10          11          12
    1   0.0000438   0.0000058  -0.0000115   0.0000908   0.0002185   0.0002771
    2   0.0000146  -0.0000309   0.0000951  -0.0002541  -0.0002066   0.0007964
    3   0.0000388  -0.0000995  -0.0002406   0.0001071   0.0002510   0.0002196
           13          14          15          16
    1  -0.0005638   0.0001081   0.0001705   0.0000083
    2  -0.0000623  -0.0004929   0.0001762  -0.0000230
    3   0.0006233  -0.0004911  -0.0001753  -0.0000337
 Gradient of SCF Energy
            1           2           3           4           5           6
    1   0.0024874  -0.0035210   0.0010589   0.0024546   0.0031406   0.0022063
    2   0.0001636   0.0037727  -0.0034627  -0.0055812  -0.0005156  -0.0053376
    3   0.0020070  -0.0056338  -0.0022222   0.0056240   0.0035646   0.0041139
            7           8           9          10          11          12
    1  -0.0025163   0.0027660  -0.0018994  -0.0026175  -0.0000110  -0.0030189
    2   0.0052965   0.0028378   0.0058663   0.0020860   0.0012826  -0.0088470
    3  -0.0052718  -0.0019736   0.0015991  -0.0004718  -0.0016114  -0.0026202
           13          14          15          16
    1   0.0000915  -0.0028084  -0.0017646   0.0039517
    2   0.0042516   0.0017351  -0.0000443  -0.0035037
    3   0.0001472   0.0052310   0.0043298  -0.0068117
 Max gradient component =       8.847E-03
 RMS gradient           =       3.575E-03
 Computing fast CPCM-SWIG gradient
 Updating gradient with PCM contributions...
 -- total gradient after adding PCM contribution --
---------------------------------------------------
  Atom         X              Y              Z     
---------------------------------------------------
   1       0.000010       0.000948      -0.000484
   2       0.000013      -0.000672       0.000328
   3       0.000138      -0.000015       0.000086
   4      -0.000056      -0.000180       0.000070
   5       0.000066      -0.000015       0.000082
   6      -0.000022      -0.000014      -0.000009
   7      -0.000015       0.000011      -0.000007
   8       0.000001       0.000008       0.000006
   9      -0.000058      -0.000005      -0.000015
  10      -0.000002      -0.000001      -0.000001
  11       0.000004       0.000014       0.000004
  12      -0.000085      -0.000028      -0.000065
  13       0.000014      -0.000043       0.000002
  14      -0.000004      -0.000003      -0.000007
  15      -0.000022       0.000003       0.000002
  16       0.000017      -0.000006       0.000008
---------------------------------------------------
 Number of fixed atoms: 0
 Gradient time:  CPU 1137.74 s  wall 47.01 s
 ----------------------------------------------------------------
             Standard Nuclear Orientation (Angstroms)
    I     Atom           X                Y                Z
 ----------------------------------------------------------------
    1      O       5.0797813306    -0.1619607934     2.5327263481
    2      C       5.0550394296     0.9043948192     1.8688451987
    3      C       3.8703148316    -1.2738168484     1.7967557034
    4      O       5.7280383193     1.9381123077     1.9965549474
    5      O       4.1502527347     0.9355388333     0.8464614658
    6      C       3.3765927452    -0.2915193255     0.7503863798
    7      Li      4.8814421220     2.7971767464     0.5463124880
    8      H       3.3274634305    -1.3978578119     2.7186651693
    9      H       4.5984332111    -2.0155952675     1.5144942649
   10      H       2.3336095920    -0.0302486221     0.9123629902
   11      H       3.5277536539    -0.6928148212    -0.2481876552
   12      O       2.4743572458    -2.5471048916     1.0670454504
   13      C       2.8746023876    -3.3412907292     0.1405649544
   14      O       2.1017215864    -4.2664620932    -0.3181600905
   15      O       4.0664658418    -3.2397531280    -0.3643922433
   16      Li      3.5421115379    -4.6815783745    -1.3948253715
 ----------------------------------------------------------------
 Nuclear Repulsion Energy =         595.39824846 hartrees
 There are       41 alpha and       41 beta electrons
 Discretize the solute cavity surface with Lebedev spheres
	Using 110 Lebedev grid points for each H atom
	Using 194 Lebedev grid points for other atoms
	Atomic van der Waals radii will be scaled by 1.20
 Remove points where switching function is < 1.0e-08
 Keep 1061 surface tesserae and discard 1707 interior tesserae
 Molecular Surface Area = 238.577 Angst**2
 Requested basis set is def2-TZVPPD
 There are 184 shells and 500 basis functions
 A cutoff of  1.0D-14 yielded  15158 shell pairs
 There are    112768 function pairs (    143666 Cartesian)
 Smallest overlap matrix eigenvalue = 3.27E-06
 Guess MOs from SCF MO coefficient file

 -----------------------------------------------------------------------
  General SCF calculation program by
  Eric Jon Sundstrom, Paul Horn, Yuezhi Mao, Dmitri Zuev, Alec White,
  David Stuck, Shaama M.S., Shane Yost, Joonho Lee, David Small,
  Daniel Levine, Susi Lehtola, Hugh Burton, Evgeny Epifanovsky,
  Bang C. Huynh
 -----------------------------------------------------------------------
 Exchange:     0.1670 Hartree-Fock + 1.0000 wB97X-V + LR-HF
 Correlation:  1.0000 wB97X-V
 Using SG-3 standard quadrature grid
 Nonlocal Correlation:  VV10 with C = 0.0100 and b = 6.00 and scale = 1.00000
 Grid used for NLC:  SG-1 standard quadrature
 
 Citation of the SMD model:
 Marenich, A.V.; Cramer, C.J.; Truhlar, D.G.
 J. Phys. Chem. B 2009, 113, 6378-6396.
 iSolventCode=           0
 Solvent: other                                                           
 
 vradii
            1           2           3           4           5           6
    1   2.2940000   1.8500000   1.8500000   2.2940000   2.2940000   1.8500000
            7           8           9          10          11          12
    1   2.1476001   1.2000000   1.2000000   1.2000000   1.2000000   2.2940000
           13          14          15          16
    1   1.8500000   2.2940000   2.2940000   2.1476001
 using 32 threads for integral computing
 -------------------------------------------------------
 OpenMP Integral computing Module                
 Release: version 1.0, May 2013, Q-Chem Inc. Pittsburgh 
 -------------------------------------------------------
 using 32 threads for integral computing
 -------------------------------------------------------
 OpenMP Integral computing Module                
 Release: version 1.0, May 2013, Q-Chem Inc. Pittsburgh 
 -------------------------------------------------------
 -------------------------------------------------------
 OpenMP BLAS3 based DFT computing Module                
 Release: version 1.0, May 2013, Q-Chem Inc. Pittsburgh 
 -------------------------------------------------------
 -------------------------------------------------------
 OpenMP BLAS3 based DFT computing Module                
 Release: version 1.0, May 2013, Q-Chem Inc. Pittsburgh 
 -------------------------------------------------------
 -------------------------------------------------------
 OpenMP BLAS3 based DFT computing Module                
 Release: version 1.0, May 2013, Q-Chem Inc. Pittsburgh 
 -------------------------------------------------------
 A restricted SCF calculation will be
 performed using Roothaan-Hall, DIIS
 SCF converges when DIIS error is below 1.0e-08
 ---------------------------------------
  Cycle       Energy         DIIS error
 ---------------------------------------
    1    -620.7822480703      2.43e-04  Roothaan Step
 ---------------------------------------
  Cycle       Energy         DIIS error
 ---------------------------------------
    1    -621.4319015579      2.86e-04  
    2    -621.4342985244      2.68e-04  
    3    -621.4357940659      6.36e-05  
    4    -621.4359111304      1.74e-05  
    5    -621.4359281848      8.55e-06  
    6    -621.4359312626      3.53e-06  
    7    -621.4359318125      1.49e-06  
    8    -621.4359319120      5.39e-07  
    9    -621.4359319271      2.60e-07  
[...]

 Mode:                16                     17                     18
 Frequency:       575.75                 680.74                 701.58
 Force Cnst:      1.5318                 2.1873                 3.9379
 Red. Mass:       7.8431                 8.0110                13.5790
 IR Active:          YES                    YES                    YES
 IR Intens:      125.029                 34.658                 15.006
 Raman Active:       YES                    YES                    YES
               X      Y      Z        X      Y      Z        X      Y      Z
 O         -0.071  0.050 -0.129    0.244  0.193  0.152    0.017 -0.023 -0.002
 C          0.024  0.098 -0.044   -0.004  0.031 -0.027   -0.040 -0.068 -0.033
 C         -0.067 -0.162  0.063    0.028  0.158 -0.045   -0.011  0.014  0.066
 O          0.117  0.040  0.111    0.179 -0.145  0.286   -0.063 -0.090 -0.004
 O         -0.005  0.058 -0.043   -0.167 -0.102 -0.137   -0.016  0.061 -0.053
 C          0.024 -0.082  0.091   -0.292 -0.196 -0.185    0.058  0.081  0.050
 Li        -0.033  0.011 -0.044   -0.065  0.127 -0.148   -0.010  0.006 -0.016
 H         -0.075 -0.118  0.071    0.127  0.187  0.012   -0.051  0.136  0.068
 H         -0.011 -0.145  0.162    0.114  0.251 -0.053    0.115  0.081  0.249
 H          0.031 -0.069  0.103   -0.302 -0.231 -0.187    0.050  0.048  0.065
 H          0.009 -0.071  0.089   -0.225 -0.275 -0.145    0.029  0.002  0.081
 O          0.042 -0.122 -0.150    0.009  0.018 -0.015    0.515  0.256 -0.034
 C          0.042 -0.080 -0.099   -0.007 -0.007 -0.005   -0.185 -0.123 -0.020
 O         -0.059 -0.070 -0.029   -0.001 -0.015 -0.014   -0.003 -0.339 -0.308
 O          0.092  0.004 -0.039   -0.009  0.007  0.010   -0.253  0.212  0.320
 Li        -0.263  0.524  0.597   -0.010  0.005  0.009   -0.158 -0.057  0.027
 TransDip  -0.169  0.164  0.270   -0.122  0.019 -0.143   -0.074 -0.096 -0.028

 Mode:                19                     20                     21
 Frequency:       753.90                 771.29                 807.22
 Force Cnst:      4.5481                 3.5346                 0.7235
 Red. Mass:      13.5816                10.0843                 1.8846
 IR Active:          YES                    YES                    YES
 IR Intens:       36.411                 12.959                 33.662
 Raman Active:       YES                    YES                    YES
               X      Y      Z        X      Y      Z        X      Y      Z
 O          0.048  0.028  0.053    0.209  0.081  0.184   -0.031  0.023  0.041
 C         -0.072 -0.044 -0.022   -0.182 -0.127 -0.090    0.160 -0.097 -0.156
 C          0.019 -0.057  0.019    0.046 -0.134  0.081   -0.038  0.004  0.040
 O         -0.047 -0.115  0.006   -0.148 -0.310  0.010   -0.057  0.013  0.041
 O         -0.034  0.094 -0.091   -0.084  0.325 -0.273   -0.023  0.035  0.006
 C          0.089  0.076  0.029    0.242  0.215  0.097   -0.023  0.033  0.044
 Li        -0.015 -0.003 -0.014   -0.037 -0.018 -0.028    0.004 -0.005 -0.005
 H          0.136  0.062  0.101   -0.044  0.058  0.057    0.258 -0.428  0.155
 H          0.046 -0.059  0.070    0.059 -0.206  0.299    0.035  0.246 -0.424
 H          0.081  0.000  0.091    0.234  0.032  0.329   -0.088  0.055 -0.429
 H          0.013  0.055  0.024    0.002  0.134  0.098    0.374 -0.196  0.192
 O         -0.128  0.224  0.262   -0.093 -0.117 -0.060   -0.003 -0.001 -0.002
 C         -0.065  0.149  0.162    0.045 -0.036 -0.065    0.001 -0.006  0.004
 O          0.459 -0.023 -0.247   -0.114  0.033  0.091   -0.001  0.002 -0.000
 O         -0.238 -0.404 -0.249    0.102  0.068  0.013    0.002 -0.000 -0.003
 Li        -0.111  0.227  0.257    0.032 -0.028 -0.041   -0.001  0.002  0.002
 TransDip  -0.078  0.104  0.143   -0.008 -0.105 -0.047    0.094 -0.115 -0.112

 Mode:                22                     23                     24
 Frequency:       820.13                 872.78                 957.52
 Force Cnst:      0.8803                 5.6129                 5.1422
 Red. Mass:       2.2213                12.5061                 9.5192
 IR Active:          YES                    YES                    YES
 IR Intens:       17.221                 32.440                 54.804
 Raman Active:       YES                    YES                    YES
               X      Y      Z        X      Y      Z        X      Y      Z
 O         -0.061  0.029  0.049   -0.001 -0.001  0.002    0.001 -0.302  0.178
 C          0.196 -0.099 -0.168    0.001 -0.002 -0.002    0.160 -0.031  0.202
 C          0.043 -0.008 -0.042    0.001 -0.002 -0.008    0.064 -0.115  0.133
 O         -0.047  0.037  0.049   -0.002  0.001 -0.001    0.022  0.212 -0.105
 O         -0.055  0.014  0.059   -0.002  0.007  0.002    0.028  0.391 -0.209
 C          0.023 -0.030 -0.041    0.011 -0.004 -0.001   -0.282 -0.212 -0.177
 Li         0.006 -0.002 -0.004    0.000 -0.000  0.000    0.024 -0.005  0.030
 H         -0.263  0.393 -0.169   -0.029  0.026 -0.023   -0.012 -0.235  0.084
 H         -0.005 -0.226  0.423    0.003 -0.017  0.037   -0.014 -0.208  0.143
 H          0.080 -0.083  0.430    0.022 -0.003  0.070   -0.253 -0.177 -0.070
 H         -0.359  0.220 -0.195   -0.054 -0.015 -0.005   -0.247 -0.215 -0.169
 O         -0.004 -0.001  0.004   -0.080  0.142 -0.157    0.023  0.012 -0.006
 C         -0.001  0.009 -0.004    0.315 -0.574  0.630   -0.005  0.007  0.005
 O          0.004  0.001  0.002   -0.080  0.150 -0.162    0.015  0.008  0.001
 O         -0.002 -0.003  0.001   -0.083  0.148 -0.164   -0.018 -0.004  0.006
 Li         0.001 -0.001 -0.002    0.011 -0.020  0.023   -0.001  0.000  0.000
 TransDip   0.109 -0.005 -0.077    0.059 -0.121  0.123    0.025 -0.182  0.150

 Mode:                25                     26                     27
 Frequency:      1053.78                1078.72                1116.19
 Force Cnst:      2.9459                 7.0727                 2.8638
 Red. Mass:       4.5026                10.3162                 3.9013
 IR Active:          YES                    YES                    YES
 IR Intens:      234.898                  3.640                225.570
 Raman Active:       YES                    YES                    YES
               X      Y      Z        X      Y      Z        X      Y      Z
 O          0.024  0.118 -0.043   -0.038 -0.018 -0.002   -0.018 -0.020 -0.013
 C         -0.127 -0.002 -0.138    0.028 -0.014  0.040    0.051  0.010  0.049
 C          0.054 -0.121  0.128    0.021 -0.019  0.015    0.090 -0.146  0.186
 O         -0.067 -0.105 -0.012    0.008  0.016 -0.002    0.051  0.057  0.023
 O          0.232  0.096  0.199   -0.032 -0.019 -0.018   -0.144 -0.160 -0.058
 C         -0.184 -0.074 -0.160    0.003  0.030 -0.038   -0.003  0.285 -0.177
 Li        -0.014 -0.009 -0.010    0.003  0.006 -0.000    0.006  0.007  0.002
 H          0.194 -0.116  0.224    0.440  0.277  0.302    0.206 -0.345  0.255
 H          0.140 -0.083  0.221   -0.054 -0.083 -0.033    0.184 -0.161  0.401
 H         -0.070  0.435 -0.256   -0.003 -0.004 -0.002   -0.037  0.281 -0.262
 H         -0.065  0.419 -0.338   -0.055  0.010 -0.043   -0.140  0.305 -0.223
 O         -0.005  0.009  0.003   -0.130  0.279  0.310    0.000 -0.018 -0.032
 C          0.006 -0.004 -0.004   -0.029 -0.008  0.009    0.004  0.013  0.012
 O         -0.006 -0.007 -0.003   -0.278 -0.318 -0.152    0.009  0.014  0.009
 O          0.003  0.002 -0.001    0.434  0.054 -0.170   -0.024  0.001  0.010
 Li        -0.000  0.001  0.001   -0.005 -0.000  0.002    0.004 -0.005 -0.006
 TransDip  -0.349 -0.209 -0.276   -0.026 -0.023  0.050    0.295  0.318  0.208

 Mode:                28                     29                     30
 Frequency:      1169.20                1175.28                1226.48
 Force Cnst:      1.2156                 0.8855                 1.1504
 Red. Mass:       1.5092                 1.0881                 1.2980
 IR Active:          YES                    YES                    YES
 IR Intens:        0.391                  2.281                106.263
 Raman Active:       YES                    YES                    YES
               X      Y      Z        X      Y      Z        X      Y      Z
 O         -0.014  0.007  0.008    0.012 -0.008 -0.022   -0.038  0.014 -0.047
 C          0.004 -0.003  0.001    0.006 -0.006  0.004    0.049 -0.040  0.079
 C          0.092 -0.052 -0.073    0.010  0.001 -0.023   -0.019  0.022 -0.020
 O         -0.002 -0.000  0.000   -0.005 -0.003 -0.001   -0.029 -0.029 -0.014
 O          0.024 -0.014 -0.021    0.013  0.001 -0.005    0.007  0.018  0.000
 C         -0.113  0.069  0.096   -0.036  0.014  0.036    0.006 -0.003 -0.009
 Li         0.001 -0.000 -0.001    0.000  0.001 -0.001    0.002  0.008 -0.003
 H          0.032  0.498 -0.039   -0.411 -0.276 -0.311    0.561  0.381  0.370
 H         -0.148 -0.406  0.215    0.539  0.355  0.435    0.396  0.337  0.253
 H         -0.255 -0.173 -0.399   -0.081 -0.082 -0.100   -0.011 -0.124  0.078
 H          0.425  0.055  0.185    0.134  0.001  0.068   -0.050 -0.139  0.036
 O          0.002 -0.005 -0.007   -0.024  0.012  0.021   -0.026 -0.016 -0.017
 C         -0.000 -0.004  0.000    0.007  0.006  0.002    0.032 -0.020 -0.039
 O          0.004  0.006  0.003   -0.011 -0.014 -0.007    0.006  0.012  0.009
 O         -0.005  0.001  0.001    0.014  0.000 -0.006   -0.029 -0.002  0.014
 Li        -0.000  0.000  0.000    0.001 -0.001 -0.001   -0.000  0.005  0.004
 TransDip  -0.019 -0.000  0.005    0.016 -0.002  0.046    0.184 -0.266  0.067

 Mode:                31                     32                     33
 Frequency:      1284.84                1355.41                1432.81
 Force Cnst:      1.0404                 1.9110                 3.9337
 Red. Mass:       1.0696                 1.7655                 3.2522
 IR Active:          YES                    YES                    YES
 IR Intens:        7.021                104.643                527.772
 Raman Active:       YES                    YES                    YES
               X      Y      Z        X      Y      Z        X      Y      Z
 O         -0.002  0.001  0.001    0.005 -0.102  0.066    0.006 -0.019  0.023
 C         -0.004  0.001  0.003   -0.086  0.010 -0.102   -0.036  0.008 -0.043
 C          0.038 -0.021 -0.038   -0.009 -0.003 -0.012   -0.017  0.080 -0.076
 O          0.002  0.000 -0.001    0.054  0.070  0.019    0.015  0.017  0.006
 O         -0.025  0.012  0.025   -0.037 -0.015 -0.030    0.008  0.001  0.012
 C          0.002 -0.004 -0.008    0.030 -0.073  0.075    0.002 -0.001  0.003
 Li        -0.001  0.001  0.000   -0.004 -0.005 -0.001   -0.002 -0.004  0.000
 H         -0.054  0.113 -0.079    0.099  0.369  0.093    0.311 -0.519  0.032
 H          0.040 -0.086  0.124    0.258  0.291 -0.061   -0.277 -0.365  0.452
 H          0.154  0.661 -0.140    0.135  0.504 -0.218    0.016 -0.009  0.067
 H         -0.166 -0.630  0.211    0.100  0.529 -0.147    0.034 -0.138  0.065
 O         -0.000 -0.000 -0.000   -0.015  0.001  0.006   -0.034  0.011  0.033
 C         -0.014 -0.003  0.001    0.046 -0.006 -0.027    0.338  0.125 -0.054
 O          0.004  0.004  0.002   -0.008 -0.004 -0.000   -0.096 -0.085 -0.030
 O          0.007 -0.001 -0.002   -0.022 -0.002  0.009   -0.129 -0.023  0.044
 Li        -0.001 -0.000  0.000    0.002  0.004  0.002    0.021  0.016  0.004
 TransDip  -0.020 -0.077 -0.031   -0.071  0.016 -0.320    0.670  0.260 -0.159

 Mode:                34                     35                     36
 Frequency:      1441.14                1461.37                1499.55
 Force Cnst:      2.9853                 2.1001                 7.5450
 Red. Mass:       2.4396                 1.6690                 5.6949
 IR Active:          YES                    YES                    YES
 IR Intens:      516.825                 61.093               1292.628
 Raman Active:       YES                    YES                    YES
               X      Y      Z        X      Y      Z        X      Y      Z
 O         -0.013  0.089 -0.067   -0.001  0.027 -0.017    0.005  0.002  0.005
 C          0.143 -0.002  0.161    0.061  0.002  0.067    0.018  0.014  0.011
 C          0.044 -0.035  0.060   -0.025  0.090 -0.073   -0.055 -0.023 -0.044
 O         -0.066 -0.079 -0.026   -0.027 -0.033 -0.011   -0.009 -0.012 -0.003
 O         -0.034  0.006 -0.038   -0.028  0.004 -0.033   -0.010  0.005 -0.015
 C          0.012 -0.071  0.052    0.016 -0.090  0.070   -0.031 -0.035 -0.011
 Li         0.007  0.012  0.001    0.003  0.005  0.001    0.001 -0.001  0.002
 H         -0.393  0.230 -0.164    0.301 -0.456  0.042    0.210  0.099  0.130
 H         -0.026  0.074 -0.445   -0.184 -0.261  0.470    0.133  0.091  0.141
 H          0.016  0.268 -0.427    0.076  0.315 -0.211    0.111  0.246  0.400
 H         -0.243  0.327 -0.150   -0.001  0.394 -0.122    0.495  0.084  0.027
 O         -0.010 -0.001  0.002    0.012  0.002 -0.000    0.071 -0.145 -0.169
 C          0.134  0.075  0.003   -0.100 -0.053  0.003   -0.087  0.382  0.391
 O         -0.044 -0.042 -0.016    0.032  0.030  0.011   -0.068 -0.106 -0.063
 O         -0.050 -0.010  0.013    0.037  0.010 -0.011    0.058 -0.020 -0.047
 Li         0.010  0.005 -0.001   -0.007 -0.004 -0.001    0.019 -0.025 -0.032
 TransDip   0.615  0.280  0.271   -0.127 -0.128  0.173    0.059  0.859  0.764

 Mode:                37                     38                     39
 Frequency:      1508.78                1750.30                3142.44
 Force Cnst:      1.6578                21.2428                 6.1574
 Red. Mass:       1.2361                11.7689                 1.0583
 IR Active:          YES                    YES                    YES
 IR Intens:      104.616               1226.379                 10.833
 Raman Active:       YES                    YES                    YES
               X      Y      Z        X      Y      Z        X      Y      Z
 O         -0.004  0.020 -0.017   -0.001 -0.226  0.134    0.000  0.000  0.000
 C          0.034 -0.009  0.043    0.278  0.779 -0.157    0.001  0.001  0.001
 C          0.014 -0.004  0.018   -0.048 -0.054 -0.026    0.001 -0.002  0.000
 O         -0.011 -0.013 -0.005   -0.184 -0.288 -0.032   -0.000 -0.000 -0.000
 O         -0.022 -0.012 -0.019   -0.005 -0.050  0.025   -0.000 -0.001  0.000
 C         -0.059 -0.015 -0.049   -0.014  0.027 -0.030   -0.053 -0.002 -0.042
 Li         0.002  0.005 -0.001    0.017 -0.017  0.029    0.000  0.000 -0.000
 H         -0.083  0.007 -0.037    0.120  0.101  0.092   -0.002 -0.001  0.004
 H         -0.028 -0.011 -0.082    0.131  0.102  0.070   -0.004  0.003  0.001
 H          0.138  0.332  0.577   -0.031 -0.076  0.071    0.719 -0.186 -0.122
 H          0.703  0.076  0.040    0.019 -0.108  0.020   -0.102  0.240  0.600
 O         -0.011  0.020  0.025   -0.001  0.016  0.016    0.000 -0.000  0.000
 C          0.025 -0.049 -0.056    0.009 -0.028 -0.030   -0.000  0.000  0.000
 O          0.006  0.011  0.007    0.004  0.008  0.005   -0.000  0.000 -0.000
 O         -0.013  0.001  0.008   -0.005  0.002  0.006    0.000 -0.000 -0.000
 Li        -0.002  0.004  0.005   -0.000  0.000  0.000   -0.000 -0.000 -0.000
 TransDip   0.161 -0.280 -0.054    0.480  1.009 -0.101   -0.093  0.005 -0.050

 Mode:                40                     41                     42
 Frequency:      3211.21                3227.71                3352.41
 Force Cnst:      6.7667                 6.4723                 7.4702
 Red. Mass:       1.1138                 1.0544                 1.1282
 IR Active:          YES                    YES                    YES
 IR Intens:        2.106                  5.531                  2.905
 Raman Active:       YES                    YES                    YES
               X      Y      Z        X      Y      Z        X      Y      Z
 O          0.000 -0.000 -0.000    0.000 -0.001  0.001   -0.001  0.001  0.001
 C          0.000  0.000 -0.000   -0.000  0.000 -0.001   -0.000 -0.000  0.000
 C         -0.003 -0.002  0.006   -0.012  0.050 -0.040    0.072 -0.035 -0.067
 O          0.000 -0.000 -0.000   -0.000 -0.000  0.000    0.000  0.000 -0.000
 O         -0.001  0.000  0.001    0.000  0.000  0.000   -0.000  0.000  0.000
 C          0.061 -0.036 -0.067    0.005 -0.005 -0.002    0.003 -0.002 -0.003
 Li        -0.000 -0.000  0.000   -0.000 -0.000 -0.000    0.000 -0.000  0.000
 H          0.043  0.007 -0.071   -0.359 -0.080  0.608   -0.352 -0.079  0.592
 H         -0.008  0.010  0.002    0.477 -0.477 -0.180   -0.484  0.489  0.179
 H         -0.620  0.160  0.095   -0.038  0.010  0.007   -0.037  0.013  0.002
 H         -0.103  0.270  0.694   -0.006  0.019  0.047   -0.003  0.008  0.032
 O         -0.000 -0.000  0.000    0.000 -0.000  0.001   -0.001  0.000  0.000
 C          0.000  0.000  0.000    0.001 -0.000 -0.000    0.000  0.000  0.000
 O         -0.000 -0.000 -0.000   -0.000  0.000  0.000    0.000  0.000  0.000
 O          0.000 -0.000 -0.000   -0.000  0.000  0.000    0.000 -0.000 -0.000
 Li         0.000 -0.000 -0.000    0.000  0.000  0.000    0.000 -0.000 -0.000
 TransDip   0.037 -0.007 -0.028    0.003 -0.025 -0.071   -0.011  0.044  0.031

 STANDARD THERMODYNAMIC QUANTITIES AT   298.15 K  AND     1.00 ATM

   This Molecule has  1 Imaginary Frequencies
   Zero point vibrational energy:       59.564 kcal/mol

   Atom    1 Element O  Has Mass   15.99491
   Atom    2 Element C  Has Mass   12.00000
   Atom    3 Element C  Has Mass   12.00000
   Atom    4 Element O  Has Mass   15.99491
   Atom    5 Element O  Has Mass   15.99491
   Atom    6 Element C  Has Mass   12.00000
   Atom    7 Element Li Has Mass    7.01600
   Atom    8 Element H  Has Mass    1.00783
   Atom    9 Element H  Has Mass    1.00783
   Atom   10 Element H  Has Mass    1.00783
   Atom   11 Element H  Has Mass    1.00783
   Atom   12 Element O  Has Mass   15.99491
   Atom   13 Element C  Has Mass   12.00000
   Atom   14 Element O  Has Mass   15.99491
   Atom   15 Element O  Has Mass   15.99491
   Atom   16 Element Li Has Mass    7.01600
   Molecular Mass:   162.032780 amu
   Principal axes and moments of inertia in amu*Bohr^2:
                             1           2           3
    Eigenvalues --      552.26042  3967.66853  4033.06780
          X               0.37375     0.06516     0.92524
          Y               0.87123    -0.36690    -0.32610
          Z               0.31822     0.92798    -0.19389
   Rotational Symmetry Number is   1
   The Molecule is an Asymmetric Top
   Translational Enthalpy:        0.889 kcal/mol
   Rotational Enthalpy:           0.889 kcal/mol
   Vibrational Enthalpy:         65.083 kcal/mol
   gas constant (RT):             0.592 kcal/mol
   Translational Entropy:        41.156  cal/mol.K
   Rotational Entropy:           30.558  cal/mol.K
   Vibrational Entropy:          38.047  cal/mol.K

   Total Enthalpy:               67.453 kcal/mol
   Total Entropy:               109.762  cal/mol.K
Archival summary:
1\1\n0038.lr6\FREQ\ProcedureUnspecified\BasisUnspecified\64i24\ewcspott\ThuMay2120:58:452020ThuMay2120:58:452020\0\\#,FREQ,ProcedureUnspecified,BasisUnspecified,\\0,1\O\C,1,1.36561\O,2,1.24008,1,114.687\O,2,1.25552,1,115.358,3,-179.956,0\C,1,1.45377,2,112.509,3,-179.27,0\H,5,1.08676,1,107.36,2,-122.45,0\H,5,1.08734,1,107.326,2,118.106,0\C,5,1.51775,1,109.123,2,-2.7358,0\H,8,1.07703,5,120.047,1,100.201,0\H,8,1.07706,5,119.011,1,-95.555,0\Li,3,1.88624,2,93.2611,1,0.0617581,0\O,8,2.02545,5,86.2321,1,-179.416,0\C,12,1.28425,8,115.713,5,92.0888,0\O,13,1.28985,12,120.89,8,174.235,0\O,13,1.2984,12,121.218,8,-5.79687,0\Li,14,1.8456,13,84.3274,12,-179.478,0\\\@

 Total job time:  21051.49s(wall), 538177.48s(cpu) 
 Thu May 21 20:58:45 2020

        *************************************************************
        *                                                           *
        *  Thank you very much for using Q-Chem.  Have a nice day.  *
        *                                                           *
        *************************************************************


