
Running Job 1 of 1 mol.qin
qchem mol.qin_201745.0 /tmp/scratch/ 0
/clusterfs/mp/software/qchem/exe/qcprog.exe_s mol.qin_201745.0 /tmp/scratch/
                  Welcome to Q-Chem
     A Quantum Leap Into The Future Of Chemistry


 Q-Chem 5.2, Q-Chem, Inc., Pleasanton, CA (2019)

 Yihan Shao,  Zhengting Gan,  E. Epifanovsky,  A. T. B. Gilbert,  M. Wormit,  
 J. Kussmann,  A. W. Lange,  A. Behn,  Jia Deng,  Xintian Feng,  D. Ghosh,  
 M. Goldey,  P. R. Horn,  L. D. Jacobson,  I. Kaliman,  T. Kus,  A. Landau,  
 Jie Liu,  E. I. Proynov,  R. M. Richard,  R. P. Steele,  E. J. Sundstrom,  
 H. L. Woodcock III,  P. M. Zimmerman,  D. Zuev,  B. Alam,  B. Albrecht,  
 E. Alguire,  S. A. Baeppler,  D. Barton,  Z. Benda,  Y. A. Bernard,  
 E. J. Berquist,  K. B. Bravaya,  H. Burton,  K. Carter-Fenk,  D. Casanova,  
 Chun-Min Chang,  Yunqing Chen,  A. Chien,  K. D. Closser,  M. P. Coons,  
 S. Coriani,  S. Dasgupta,  A. L. Dempwolff,  M. Diedenhofen,  Hainam Do,  
 R. G. Edgar,  Po-Tung Fang,  S. Faraji,  S. Fatehi,  Qingguo Feng,  
 J. Fosso-Tande,  J. Gayvert,  Qinghui Ge,  A. Ghysels,  G. Gidofalvi,  
 J. Gomes,  J. Gonthier,  A. Gunina,  D. Hait,  M. W. D. Hanson-Heine,  
 P. H. P. Harbach,  A. W. Hauser,  M. F. Herbst,  J. E. Herr,  
 E. G. Hohenstein,  Z. C. Holden,  Kerwin Hui,  B. C. Huynh,  T.-C. Jagau,  
 Hyunjun Ji,  B. Kaduk,  K. Khistyaev,  Jaehoon Kim,  P. Klunzinger,  K. Koh,  
 D. Kosenkov,  L. Koulias,  T. Kowalczyk,  C. M. Krauter,  A. Kunitsa,  
 Ka Un Lao,  A. Laurent,  K. V. Lawler,  Joonho Lee,  D. Lefrancois,  
 S. Lehtola,  D. S. Levine,  Yi-Pei Li,  You-Sheng Lin,  Fenglai Liu,  
 Kuan-Yu Liu,  E. Livshits,  M. Loipersberger,  A. Luenser,  P. Manohar,  
 E. Mansoor,  S. F. Manzer,  Shan-Ping Mao,  Yuezhi Mao,  N. Mardirossian,  
 A. V. Marenich,  T. Markovich,  L. A. Martinez-Martinez,  S. A. Maurer,  
 N. J. Mayhall,  S. C. McKenzie,  J.-M. Mewes,  P. Morgante,  A. F. Morrison,  
 J. W. Mullinax,  K. Nanda,  T. S. Nguyen-Beck,  R. Olivares-Amaya,  
 J. A. Parkhill,  S. K. Paul,  Zheng Pei,  T. M. Perrine,  F. Plasser,  
 P. Pokhilko,  S. Prager,  A. Prociuk,  E. Ramos,  B. Rana,  D. R. Rehn,  
 F. Rob,  M. Scheurer,  M. Schneider,  N. Sergueev,  S. M. Sharada,  
 S. Sharma,  D. W. Small,  T. Stauch,  C. J. Stein,  T. Stein,  Yu-Chuan Su,  
 S. P. Veccham,  A. J. W. Thom,  A. Tkatchenko,  T. Tsuchimochi,  
 N. M. Tubman,  L. Vogt,  M. L. Vidal,  O. Vydrov,  M. A. Watson,  J. Wenzel,  
 M. de Wergifosse,  T. A. Wesolowski,  A. White,  J. Witte,  A. Yamada,  
 Jun Yang,  K. Yao,  S. Yeganeh,  S. R. Yost,  Zhi-Qiang You,  A. Zech,  
 Igor Ying Zhang,  Xing Zhang,  Yan Zhao,  Ying Zhu,  B. R. Brooks,  
 G. K. L. Chan,  C. J. Cramer,  M. S. Gordon,  W. J. Hehre,  A. Klamt,  
 M. W. Schmidt,  C. D. Sherrill,  D. G. Truhlar,  A. Aspuru-Guzik,  R. Baer,  
 A. T. Bell,  N. A. Besley,  Jeng-Da Chai,  A. E. DePrince, III,  
 R. A. DiStasio Jr.,  A. Dreuw,  B. D. Dunietz,  T. R. Furlani,  
 Chao-Ping Hsu,  Yousung Jung,  Jing Kong,  D. S. Lambrecht,  WanZhen Liang,  
 C. Ochsenfeld,  V. A. Rassolov,  L. V. Slipchenko,  J. E. Subotnik,  
 T. Van Voorhis,  J. M. Herbert,  A. I. Krylov,  P. M. W. Gill,  M. Head-Gordon

 Contributors to earlier versions of Q-Chem not listed above: 
 R. D. Adamson,  B. Austin,  J. Baker,  G. J. O. Beran,  K. Brandhorst,  
 S. T. Brown,  E. F. C. Byrd,  A. K. Chakraborty,  C.-L. Cheng,  
 Siu Hung Chien,  D. M. Chipman,  D. L. Crittenden,  H. Dachsel,  
 R. J. Doerksen,  A. D. Dutoi,  L. Fusti-Molnar,  W. A. Goddard III,  
 A. Golubeva-Zadorozhnaya,  S. R. Gwaltney,  G. Hawkins,  A. Heyden,  
 S. Hirata,  G. Kedziora,  F. J. Keil,  C. Kelley,  Jihan Kim,  R. A. King,  
 R. Z. Khaliullin,  P. P. Korambath,  W. Kurlancheek,  A. M. Lee,  M. S. Lee,  
 S. V. Levchenko,  Ching Yeh Lin,  D. Liotard,  R. C. Lochan,  I. Lotan,  
 P. E. Maslen,  N. Nair,  D. P. O'Neill,  D. Neuhauser,  E. Neuscamman,  
 C. M. Oana,  R. Olson,  B. Peters,  R. Peverati,  P. A. Pieniazek,  
 Y. M. Rhee,  J. Ritchie,  M. A. Rohrdanz,  E. Rosta,  N. J. Russ,  
 H. F. Schaefer III,  N. E. Schultz,  N. Shenvi,  A. C. Simmonett,  A. Sodt,  
 D. Stuck,  K. S. Thanthiriwatte,  V. Vanovschi,  Tao Wang,  A. Warshel,  
 C. F. Williams,  Q. Wu,  X. Xu,  W. Zhang

 Please cite Q-Chem as follows:
 Y. Shao et al., Mol. Phys. 113, 184-215 (2015)
 DOI: 10.1080/00268976.2014.952696

 Q-Chem 5.2.2 for Intel X86 EM64T Linux

 Parts of Q-Chem use Armadillo 8.300.2 (Tropical Shenanigans).
 http://arma.sourceforge.net/

 Q-Chem begins on Fri May 15 14:41:00 2020  

Host: 
0

     Scratch files written to /tmp/scratch//
 Nov2519 |scratch|qcdevops|jenkins|workspace|build_RNUM 6829   
Processing $rem in /clusterfs/mp/software/qchem/config/preferences:
	 MEM_TOTAL  96000 
NAlpha2: 82
NElect   82
Mult     1
Symmetry turned off for PCM/SM12/SMD calculation

Checking the input file for inconsistencies... 	...done.

--------------------------------------------------------------
User input:
--------------------------------------------------------------
$molecule
0 1
O      4.9490899061     -0.0733925555      1.1007361448
C      4.9078878412      0.9862520443      1.8804956768
C      3.9054629496     -0.0469171405      0.0834562333
O      5.7074141246      1.1632906182      2.8073684385
O      3.9696731297      1.8414373659      1.6199803497
C      3.0276551257      1.1787918898      0.2653789766
Li      4.7631018428      2.7913140698      3.1817808793
H      3.3207295773     -0.9545803911      0.2069505565
H      4.4047702004     -0.0378006321     -0.8824213106
H      2.1056677832      1.0804142130      0.8139624333
H      3.1689219248      2.0386583293     -0.3677420483
O      1.9638253141      0.4838664380     -1.3402365495
C      0.9650737897     -0.2679753844     -1.0532407743
O      0.1752897735     -0.7063773088     -1.9751199028
O      0.7139970998     -0.6151561678      0.1738044683
Li     -0.7064757984     -1.5251434368     -0.5777135511
$end

$rem
job_type = freq
basis = def2-tzvppd
max_scf_cycles = 200
gen_scfman = true
xc_grid = 3
scf_algorithm = diis
resp_charges = true
symmetry = false
sym_ignore = true
method = wb97xv
solvent_method = smd
ideriv = 1
thresh = 14
$end

$smx
solvent other
$end
--------------------------------------------------------------
 ----------------------------------------------------------------
             Standard Nuclear Orientation (Angstroms)
    I     Atom           X                Y                Z
 ----------------------------------------------------------------
    1      O       4.9490899061    -0.0733925555     1.1007361448
    2      C       4.9078878412     0.9862520443     1.8804956768
    3      C       3.9054629496    -0.0469171405     0.0834562333
    4      O       5.7074141246     1.1632906182     2.8073684385
    5      O       3.9696731297     1.8414373659     1.6199803497
    6      C       3.0276551257     1.1787918898     0.2653789766
    7      Li      4.7631018428     2.7913140698     3.1817808793
    8      H       3.3207295773    -0.9545803911     0.2069505565
    9      H       4.4047702004    -0.0378006321    -0.8824213106
   10      H       2.1056677832     1.0804142130     0.8139624333
   11      H       3.1689219248     2.0386583293    -0.3677420483
   12      O       1.9638253141     0.4838664380    -1.3402365495
   13      C       0.9650737897    -0.2679753844    -1.0532407743
   14      O       0.1752897735    -0.7063773088    -1.9751199028
   15      O       0.7139970998    -0.6151561678     0.1738044683
   16      Li     -0.7064757984    -1.5251434368    -0.5777135511
 ----------------------------------------------------------------
 Nuclear Repulsion Energy =         595.51203535 hartrees
 There are       41 alpha and       41 beta electrons
 Requested basis set is def2-TZVPPD
 There are 184 shells and 500 basis functions

 Total QAlloc Memory Limit  96000 MB
 Mega-Array Size       188 MB
 MEM_STATIC part       192 MB
 
 Citation of the SMD model:
 Marenich, A.V.; Cramer, C.J.; Truhlar, D.G.
 J. Phys. Chem. B 2009, 113, 6378-6396.
 iSolventCode=           0
 Solvent: other                                                           
 
 vradii
            1           2           3           4           5           6
    1   2.2940000   1.8500000   1.8500000   2.2940000   2.2940000   1.8500000
            7           8           9          10          11          12
    1   2.1476001   1.2000000   1.2000000   1.2000000   1.2000000   2.2940000
           13          14          15          16
    1   1.8500000   2.2940000   2.2940000   2.1476001
 Changing PCM_VDW_RADII to SMD_RADIUS
 Discretize the solute cavity surface with Lebedev spheres
	Using 110 Lebedev grid points for each H atom
	Using 194 Lebedev grid points for other atoms
	Atomic van der Waals radii will be scaled by 1.20
 Remove points where switching function is < 1.0e-08
 Keep 1067 surface tesserae and discard 1701 interior tesserae
 Molecular Surface Area = 238.385 Angst**2
 A cutoff of  1.0D-14 yielded  15156 shell pairs
 There are    112788 function pairs (    143689 Cartesian)
 Smallest overlap matrix eigenvalue = 3.51E-06
 Guess from superposition of atomic densities
 Warning:  Energy on first SCF cycle will be non-variational
 SAD guess density has 82.000000 electrons

 -----------------------------------------------------------------------
  General SCF calculation program by
  Eric Jon Sundstrom, Paul Horn, Yuezhi Mao, Dmitri Zuev, Alec White,
  David Stuck, Shaama M.S., Shane Yost, Joonho Lee, David Small,
  Daniel Levine, Susi Lehtola, Hugh Burton, Evgeny Epifanovsky,
  Bang C. Huynh
 -----------------------------------------------------------------------
 Exchange:     0.1670 Hartree-Fock + 1.0000 wB97X-V + LR-HF
 Correlation:  1.0000 wB97X-V
 Using SG-3 standard quadrature grid
 Nonlocal Correlation:  VV10 with C = 0.0100 and b = 6.00 and scale = 1.00000
 Grid used for NLC:  SG-1 standard quadrature
 
 Citation of the SMD model:
 Marenich, A.V.; Cramer, C.J.; Truhlar, D.G.
 J. Phys. Chem. B 2009, 113, 6378-6396.
 iSolventCode=           0
 Solvent: other                                                           
 
 vradii
            1           2           3           4           5           6
    1   2.2940000   1.8500000   1.8500000   2.2940000   2.2940000   1.8500000
            7           8           9          10          11          12
    1   2.1476001   1.2000000   1.2000000   1.2000000   1.2000000   2.2940000
           13          14          15          16
    1   1.8500000   2.2940000   2.2940000   2.1476001
 using 32 threads for integral computing
 -------------------------------------------------------
 OpenMP Integral computing Module                
 Release: version 1.0, May 2013, Q-Chem Inc. Pittsburgh 
 -------------------------------------------------------
 using 32 threads for integral computing
 -------------------------------------------------------
 OpenMP Integral computing Module                
 Release: version 1.0, May 2013, Q-Chem Inc. Pittsburgh 
 -------------------------------------------------------
 -------------------------------------------------------
 OpenMP BLAS3 based DFT computing Module                
 Release: version 1.0, May 2013, Q-Chem Inc. Pittsburgh 
 -------------------------------------------------------
 -------------------------------------------------------
 OpenMP BLAS3 based DFT computing Module                
 Release: version 1.0, May 2013, Q-Chem Inc. Pittsburgh 
 -------------------------------------------------------
 -------------------------------------------------------
 OpenMP BLAS3 based DFT computing Module                
 Release: version 1.0, May 2013, Q-Chem Inc. Pittsburgh 
 -------------------------------------------------------
 A restricted SCF calculation will be
 performed using DIIS
 SCF converges when DIIS error is below 1.0e-08
 ---------------------------------------
  Cycle       Energy         DIIS error
 ---------------------------------------
    1    -623.0661980116      2.05e-02  
    2    -621.0599059893      4.01e-03  
    3    -621.0472911603      4.44e-03  
    4    -621.4363524346      2.63e-04  
    5    -621.4372616066      1.99e-04  
    6    -621.4380853170      3.33e-05  
    7    -621.4381197347      1.21e-05  
    8    -621.4381238103      5.50e-06  
    9    -621.4381246795      1.73e-06  
   10    -621.4381248003      5.23e-07  
   11    -621.4381248132      2.37e-07  
   12    -621.4381248150      8.91e-08  
   13    -621.4381248154      2.43e-08  
   14    -621.4381248154      9.74e-09  Convergence criterion met
 ---------------------------------------
 SCF time:   CPU 4440.64s  wall 172.00s 
(3)  G-ENP(liq) elect-nuc-pol free energy of system     -621.438124815 a.u.
(4)  G-CDS(liq) cavity-dispersion-solvent structure 
     free energy                                               -3.3946 kcal/mol
(6)  G-S(liq) free energy of system                     -621.443534451 a.u.
 SCF   energy in the final basis set =     -621.4381248154
 Total energy in the final basis set =     -621.4435344510
 
 --------------------------------------------------------------
 
                    Orbital Energies (a.u.)
 --------------------------------------------------------------
 
 Alpha MOs
 -- Occupied --
-19.2735 -19.2449 -19.2120 -19.1443 -19.1338 -19.1310 -10.4531 -10.3640
-10.3485 -10.3332  -2.1319  -2.0602  -1.2909  -1.1808  -1.1689  -1.1478
 -1.0514  -1.0333  -0.9042  -0.7932  -0.7041  -0.6477  -0.6343  -0.6184
 -0.5916  -0.5728  -0.5533  -0.5328  -0.5203  -0.5185  -0.5133  -0.4962
 -0.4777  -0.4304  -0.4248  -0.4189  -0.3798  -0.3567  -0.3513  -0.3432
 -0.3177
 -- Virtual --
  0.0251   0.0327   0.0427   0.0431   0.0465   0.0512   0.0527   0.0651
  0.0868   0.0946   0.1080   0.1120   0.1166   0.1185   0.1220   0.1270
  0.1286   0.1364   0.1404   0.1445   0.1484   0.1521   0.1558   0.1577
  0.1640   0.1646   0.1707   0.1730   0.1777   0.2039   0.2053   0.2066
  0.2087   0.2194   0.2257   0.2265   0.2349   0.2396   0.2543   0.2654
  0.2702   0.2714   0.2768   0.2812   0.2890   0.2991   0.3011   0.3113
  0.3135   0.3209   0.3359   0.3423   0.3468   0.3511   0.3554   0.3585
  0.3630   0.3649   0.3699   0.3813   0.3850   0.3878   0.3908   0.4018
  0.4065   0.4074   0.4183   0.4193   0.4199   0.4291   0.4361   0.4421
  0.4490   0.4598   0.4652   0.4700   0.4739   0.4834   0.4854   0.4901
  0.4971   0.5020   0.5106   0.5162   0.5212   0.5245   0.5286   0.5317
  0.5358   0.5438   0.5488   0.5527   0.5548   0.5671   0.5699   0.5782
  0.5872   0.5950   0.6015   0.6049   0.6124   0.6158   0.6228   0.6355
  0.6384   0.6409   0.6437   0.6585   0.6652   0.6702   0.6799   0.6843
  0.6901   0.6972   0.7026   0.7101   0.7103   0.7182   0.7278   0.7325
  0.7411   0.7526   0.7541   0.7580   0.7619   0.7673   0.7791   0.7866
  0.8002   0.8043   0.8064   0.8124   0.8153   0.8273   0.8317   0.8397
  0.8449   0.8475   0.8670   0.8763   0.8813   0.8865   0.8948   0.9065
  0.9143   0.9274   0.9366   0.9447   0.9646   0.9688   0.9812   0.9921
  1.0038   1.0096   1.0192   1.0231   1.0319   1.0440   1.0583   1.0662
  1.0725   1.0831   1.0932   1.0961   1.1041   1.1060   1.1386   1.1552
  1.1659   1.1741   1.1992   1.2168   1.2280   1.2381   1.2539   1.2557
  1.2682   1.2790   1.2967   1.2990   1.3098   1.3142   1.3255   1.3396
  1.3623   1.3673   1.3738   1.3969   1.3990   1.4152   1.4243   1.4330
  1.4561   1.4748   1.4841   1.5019   1.5125   1.5242   1.5330   1.5623
  1.5726   1.6004   1.6145   1.6402   1.6464   1.6556   1.6819   1.7112
  1.7438   1.7661   1.7989   1.8039   1.8502   1.8557   1.8866   1.8993
  1.9113   1.9178   1.9334   1.9486   1.9753   1.9920   1.9978   2.0165
  2.0225   2.0510   2.0688   2.0857   2.0922   2.1058   2.1377   2.1610
  2.1807   2.2168   2.2250   2.2302   2.2747   2.3016   2.3115   2.3448
  2.3578   2.3757   2.3867   2.4109   2.4260   2.4464   2.4509   2.4688
  2.4772   2.5014   2.5053   2.5213   2.5415   2.5647   2.5971   2.6149
  2.7427   2.7754   2.7925   2.8012   2.8315   2.8940   2.9232   2.9305
  2.9558   2.9894   3.0138   3.0374   3.0435   3.0537   3.0727   3.0809
  3.1179   3.1257   3.1504   3.1662   3.1793   3.2110   3.2420   3.2570
  3.2772   3.2865   3.3159   3.3263   3.3365   3.3611   3.3656   3.3788
  3.3922   3.4028   3.4120   3.4292   3.4401   3.4544   3.4726   3.4804
  3.5035   3.5204   3.5358   3.5453   3.5629   3.5685   3.5911   3.5953
  3.6046   3.6196   3.6307   3.6388   3.6444   3.6498   3.6676   3.6794
  3.6916   3.6935   3.7451   3.7539   3.8040   3.8162   3.8236   3.8501
  3.9087   3.9330   3.9715   3.9892   4.0160   4.0243   4.0461   4.0669
  4.1176   4.1343   4.1426   4.2239   4.2466   4.2805   4.3177   4.3563
  4.3886   4.4217   4.4364   4.4713   4.5028   4.5765   4.5844   4.6545
  4.7070   4.7171   4.7508   4.7799   4.8281   4.8811   4.9063   4.9450
  4.9701   4.9905   5.0341   5.0496   5.0821   5.0944   5.1142   5.1635
  5.2526   5.2557   5.3036   5.3136   5.3243   5.3342   5.3555   5.3674
  5.4122   5.4425   5.4476   5.4723   5.4785   5.5275   5.5680   5.5737
  5.5970   5.6045   5.6335   5.6453   5.6502   5.6626   5.6851   5.6971
  5.7373   5.7583   5.7839   5.8093   5.8370   5.9100   5.9315   5.9746
  5.9882   6.0128   6.0281   6.0402   6.0517   6.0676   6.1046   6.1398
  6.2273   6.2692   6.2794   6.3126   6.3141   6.3186   6.3328   6.3507
  6.3699   6.4515   6.4647   6.4973   6.5035   6.5964   6.6205   6.6262
  6.6528   6.7351   6.7549   6.7805   6.7894   6.8138   6.8256   6.8556
  6.8752   6.8830   6.9795   6.9933   6.9999   7.0132   7.0250   7.0564
  7.1080   7.1328   7.1733   7.2798   7.3472   7.3814   7.4121   7.4653
  7.4718   7.4871   7.5363   7.5762   7.5959   7.6147   7.6983  14.8681
 14.9506  23.5632  23.7275  23.8957  24.0166  44.2626  44.3714  44.4132
 44.4146  44.4770  44.6083
 --------------------------------------------------------------
 
          Ground-State Mulliken Net Atomic Charges

     Atom                 Charge (a.u.)
  ----------------------------------------
      1 O                    -0.265468
      2 C                     0.774160
      3 C                     0.064097
      4 O                    -0.713331
      5 O                    -0.618150
      6 C                     0.296060
      7 Li                    0.887147
      8 H                     0.060623
      9 H                     0.051086
     10 H                     0.119943
     11 H                     0.116756
     12 O                    -0.621849
     13 C                     0.783385
     14 O                    -0.872401
     15 O                    -0.919984
     16 Li                    0.857926
  ----------------------------------------
  Sum of atomic charges =     0.000000

  Building new vdw surfaces
         Merz-Kollman RESP Net Atomic Charges

     Atom                 Charge (a.u.)
  ----------------------------------------
      1 O                    -0.445500
      2 C                     0.933665
      3 C                     0.177319
      4 O                    -0.724509
      5 O                    -0.725527
      6 C                     0.214193
      7 Li                    0.886353
      8 H                     0.096594
      9 H                     0.096594
     10 H                     0.143680
     11 H                     0.140659
     12 O                    -0.765583
     13 C                     0.903769
     14 O                    -0.882401
     15 O                    -0.882401
     16 Li                    0.833094
  ----------------------------------------
  Sum of atomic charges =     0.000000

  Related Dipole Moment =    11.7351 (X  1.9939 Y  5.3892 Z 10.2320)

 -----------------------------------------------------------------
                    Cartesian Multipole Moments
 -----------------------------------------------------------------
    Charge (ESU x 10^10)
                -0.0000
    Dipole Moment (Debye)
         X       1.9536      Y       5.4032      Z      10.3095
       Tot      11.8024
    Quadrupole Moments (Debye-Ang)
        XX     -39.6757     XY      41.0960     YY     -27.9759
        XZ      24.3766     YZ      26.8493     ZZ     -55.9716
    Octopole Moments (Debye-Ang^2)
       XXX    -519.0684    XXY     138.0129    XYY     -61.5701
       YYY       0.4797    XXZ      39.9468    XYZ     119.9877
       YYZ      65.1078    XZZ    -104.1428    YZZ      73.0713
       ZZZ      55.5759
    Hexadecapole Moments (Debye-Ang^3)
      XXXX   -4899.0814   XXXY     333.7493   XXYY    -230.1883
      XYYY      -5.0750   YYYY    -140.7044   XXXZ    -552.9797
      XXYZ     487.9597   XYYZ     211.6825   YYYZ      92.7992
      XXZZ    -619.4758   XYZZ     276.7418   YYZZ      73.1563
      XZZZ    -267.9926   YZZZ     114.7593   ZZZZ    -693.9787
 -----------------------------------------------------------------
 Calculating analytic gradient of the SCF energy
 Gradient of CDS energy
            1           2           3           4           5           6
    1  -0.0004938   0.0005523   0.0006566  -0.0001945  -0.0000930  -0.0004289
    2  -0.0001829  -0.0002344  -0.0011223   0.0005472  -0.0000325   0.0008665
    3  -0.0006439   0.0002911  -0.0002167   0.0002581  -0.0000305   0.0000571
            7           8           9          10          11          12
    1   0.0000233  -0.0001883  -0.0002320   0.0000452  -0.0000524   0.0007540
    2   0.0000009   0.0002972   0.0001465  -0.0002584  -0.0001052   0.0001215
    3   0.0000120   0.0001571   0.0000268   0.0000138  -0.0000039   0.0004339
           13          14          15          16
    1   0.0001468  -0.0005775   0.0001147  -0.0000325
    2   0.0005994  -0.0004164  -0.0002022  -0.0000249
    3  -0.0006228   0.0000331   0.0002286   0.0000063
 Gradient of SCF Energy
            1           2           3           4           5           6
    1   0.0016944  -0.0020902  -0.0022500   0.0023734   0.0011251  -0.0035578
    2  -0.0018597   0.0063794  -0.0005860  -0.0064003  -0.0044260  -0.0039375
    3   0.0004432   0.0020539  -0.0012409  -0.0023675  -0.0018058  -0.0012554
            7           8           9          10          11          12
    1  -0.0013993   0.0029186   0.0003619   0.0026867   0.0022817  -0.0075549
    2   0.0066021   0.0016614  -0.0001975   0.0012499   0.0025319  -0.0030842
    3   0.0032914   0.0013845   0.0010746   0.0012429   0.0023234  -0.0048402
           13          14          15          16
    1   0.0035599   0.0036616   0.0020488  -0.0058601
    2   0.0013447   0.0035161   0.0019731  -0.0047675
    3   0.0014918  -0.0029439  -0.0027525   0.0039005
 Max gradient component =       7.555E-03
 RMS gradient           =       3.215E-03
 Computing fast CPCM-SWIG gradient
 Updating gradient with PCM contributions...
 -- total gradient after adding PCM contribution --
---------------------------------------------------
  Atom         X              Y              Z     
---------------------------------------------------
   1      -0.000010       0.000008      -0.000013
   2       0.000013       0.000014       0.000010
   3      -0.000014      -0.000012       0.000008
   4       0.000005      -0.000008       0.000004
   5      -0.000004       0.000016       0.000019
   6      -0.000075      -0.000043      -0.000063
   7      -0.000000       0.000003       0.000006
   8       0.000002      -0.000006       0.000008
   9      -0.000004      -0.000013      -0.000002
  10       0.000005       0.000014       0.000016
  11       0.000028       0.000013       0.000006
  12       0.000048      -0.000001       0.000009
  13       0.000004      -0.000001      -0.000016
  14      -0.000001       0.000017       0.000016
  15       0.000001       0.000005       0.000000
  16       0.000002      -0.000005      -0.000008
---------------------------------------------------
 Number of fixed atoms: 0
 Gradient time:  CPU 986.63 s  wall 42.28 s
 ######################################################
 ######################################################
 # Starting finite difference calculation for IDERIV  #
 Finite diff step size:  1.88973e-03 a.u.
 ----------------------------------------------------------------
             Standard Nuclear Orientation (Angstroms)
    I     Atom           X                Y                Z
 ----------------------------------------------------------------
    1      O       4.9500899061    -0.0733925555     1.1007361448
    2      C       4.9078878412     0.9862520443     1.8804956768
    3      C       3.9054629496    -0.0469171405     0.0834562333
    4      O       5.7074141246     1.1632906182     2.8073684385
    5      O       3.9696731297     1.8414373659     1.6199803497
    6      C       3.0276551257     1.1787918898     0.2653789766
    7      Li      4.7631018428     2.7913140698     3.1817808793
    8      H       3.3207295773    -0.9545803911     0.2069505565
    9      H       4.4047702004    -0.0378006321    -0.8824213106
   10      H       2.1056677832     1.0804142130     0.8139624333
   11      H       3.1689219248     2.0386583293    -0.3677420483
   12      O       1.9638253141     0.4838664380    -1.3402365495
   13      C       0.9650737897    -0.2679753844    -1.0532407743
   14      O       0.1752897735    -0.7063773088    -1.9751199028
   15      O       0.7139970998    -0.6151561678     0.1738044683
   16      Li     -0.7064757984    -1.5251434368    -0.5777135511
 ----------------------------------------------------------------
 Nuclear Repulsion Energy =         595.49140992 hartrees
 There are       41 alpha and       41 beta electrons
 Discretize the solute cavity surface with Lebedev spheres
	Using 110 Lebedev grid points for each H atom
	Using 194 Lebedev grid points for other atoms
	Atomic van der Waals radii will be scaled by 1.20
 Remove points where switching function is < 1.0e-08
 Keep 1067 surface tesserae and discard 1701 interior tesserae
 Molecular Surface Area = 238.389 Angst**2
 Requested basis set is def2-TZVPPD
 There are 184 shells and 500 basis functions
 A cutoff of  1.0D-14 yielded  15155 shell pairs
 There are    112783 function pairs (    143683 Cartesian)
 Smallest overlap matrix eigenvalue = 3.51E-06
 Guess MOs from SCF MO coefficient file

 -----------------------------------------------------------------------
  General SCF calculation program by
  Eric Jon Sundstrom, Paul Horn, Yuezhi Mao, Dmitri Zuev, Alec White,
  David Stuck, Shaama M.S., Shane Yost, Joonho Lee, David Small,
  Daniel Levine, Susi Lehtola, Hugh Burton, Evgeny Epifanovsky,
  Bang C. Huynh
 -----------------------------------------------------------------------
 Exchange:     0.1670 Hartree-Fock + 1.0000 wB97X-V + LR-HF
 Correlation:  1.0000 wB97X-V
 Using SG-3 standard quadrature grid
 Nonlocal Correlation:  VV10 with C = 0.0100 and b = 6.00 and scale = 1.00000
 Grid used for NLC:  SG-1 standard quadrature
 
 Citation of the SMD model:
 Marenich, A.V.; Cramer, C.J.; Truhlar, D.G.
 J. Phys. Chem. B 2009, 113, 6378-6396.
 iSolventCode=           0
 Solvent: other                                                           
 
 vradii
            1           2           3           4           5           6
    1   2.2940000   1.8500000   1.8500000   2.2940000   2.2940000   1.8500000
            7           8           9          10          11          12
    1   2.1476001   1.2000000   1.2000000   1.2000000   1.2000000   2.2940000
           13          14          15          16
    1   1.8500000   2.2940000   2.2940000   2.1476001
 using 32 threads for integral computing
 -------------------------------------------------------
 OpenMP Integral computing Module                
 Release: version 1.0, May 2013, Q-Chem Inc. Pittsburgh 
 -------------------------------------------------------
 using 32 threads for integral computing
 -------------------------------------------------------
 OpenMP Integral computing Module                
 Release: version 1.0, May 2013, Q-Chem Inc. Pittsburgh 
 -------------------------------------------------------
 -------------------------------------------------------
 OpenMP BLAS3 based DFT computing Module                
 Release: version 1.0, May 2013, Q-Chem Inc. Pittsburgh 
 -------------------------------------------------------
 -------------------------------------------------------
 OpenMP BLAS3 based DFT computing Module                
 Release: version 1.0, May 2013, Q-Chem Inc. Pittsburgh 
 -------------------------------------------------------
 -------------------------------------------------------
 OpenMP BLAS3 based DFT computing Module                
 Release: version 1.0, May 2013, Q-Chem Inc. Pittsburgh 
 -------------------------------------------------------
 A restricted SCF calculation will be
 performed using Roothaan-Hall, DIIS
 SCF converges when DIIS error is below 1.0e-08
 ---------------------------------------
  Cycle       Energy         DIIS error
 ---------------------------------------
    1    -620.7818639163      2.24e-04  Roothaan Step
 ---------------------------------------
  Cycle       Energy         DIIS error
 ---------------------------------------
    1    -621.4344489713      2.72e-04  
    2    -621.4362148318      2.89e-04  
    3    -621.4379952027      5.72e-05  
    4    -621.4380990534      2.01e-05  
    5    -621.4381185167      9.79e-06  
    6    -621.4381225835      4.09e-06  
    7    -621.4381233096      1.57e-06  
    8    -621.4381234328      4.70e-07  
    9    -621.4381234458      2.44e-07  
   10    -621.4381234481      5.13e-08  
   11    -621.4381234483      2.55e-08  
   12    -621.4381234483      9.38e-09  Convergence criterion met
 ---------------------------------------
 SCF time:   CPU 4310.96s  wall 166.00s 
(3)  G-ENP(liq) elect-nuc-pol free energy of system     -621.438123448 a.u.
(4)  G-CDS(liq) cavity-dispersion-solvent structure 
     free energy                                               -3.3952 kcal/mol
(6)  G-S(liq) free energy of system                     -621.443534015 a.u.
 SCF   energy in the final basis set =     -621.4381234483
 Total energy in the final basis set =     -621.4435340155
 
 --------------------------------------------------------------
 
                    Orbital Energies (a.u.)
 --------------------------------------------------------------
 
 Alpha MOs
 -- Occupied --
-19.2735 -19.2449 -19.2120 -19.1444 -19.1338 -19.1310 -10.4531 -10.3640
-10.3485 -10.3332  -2.1319  -2.0602  -1.2908  -1.1807  -1.1689  -1.1478
 -1.0514  -1.0333  -0.9042  -0.7931  -0.7041  -0.6476  -0.6343  -0.6184
 -0.5916  -0.5728  -0.5533  -0.5328  -0.5203  -0.5186  -0.5133  -0.4962
 -0.4778  -0.4303  -0.4248  -0.4189  -0.3798  -0.3567  -0.3513  -0.3432
 -0.3177
 -- Virtual --
  0.0251   0.0327   0.0427   0.0431   0.0465   0.0512   0.0527   0.0651
  0.0868   0.0946   0.1079   0.1119   0.1166   0.1184   0.1220   0.1270
  0.1285   0.1364   0.1404   0.1445   0.1484   0.1521   0.1558   0.1577
  0.1640   0.1646   0.1707   0.1730   0.1777   0.2039   0.2053   0.2066
  0.2087   0.2194   0.2257   0.2265   0.2349   0.2396   0.2543   0.2653
  0.2702   0.2714   0.2768   0.2812   0.2890   0.2991   0.3011   0.3113
  0.3135   0.3209   0.3359   0.3423   0.3468   0.3511   0.3554   0.3585
  0.3630   0.3648   0.3699   0.3813   0.3850   0.3878   0.3908   0.4018
  0.4065   0.4074   0.4183   0.4193   0.4199   0.4291   0.4361   0.4421
  0.4490   0.4598   0.4652   0.4700   0.4739   0.4834   0.4854   0.4901
  0.4971   0.5020   0.5106   0.5163   0.5212   0.5245   0.5286   0.5318
  0.5359   0.5438   0.5488   0.5527   0.5548   0.5671   0.5699   0.5782
  0.5872   0.5949   0.6015   0.6049   0.6124   0.6158   0.6227   0.6355
  0.6385   0.6409   0.6437   0.6586   0.6652   0.6702   0.6798   0.6843
  0.6901   0.6972   0.7026   0.7101   0.7103   0.7182   0.7278   0.7324
  0.7411   0.7526   0.7541   0.7580   0.7619   0.7673   0.7791   0.7865
  0.8002   0.8043   0.8064   0.8124   0.8153   0.8273   0.8317   0.8397
  0.8449   0.8475   0.8670   0.8763   0.8813   0.8864   0.8948   0.9065
  0.9143   0.9274   0.9366   0.9447   0.9646   0.9688   0.9811   0.9920
  1.0038   1.0096   1.0192   1.0230   1.0319   1.0440   1.0583   1.0662
  1.0725   1.0831   1.0932   1.0960   1.1040   1.1060   1.1386   1.1551
  1.1659   1.1742   1.1991   1.2168   1.2280   1.2381   1.2538   1.2557
  1.2682   1.2790   1.2967   1.2990   1.3098   1.3142   1.3256   1.3396
  1.3623   1.3673   1.3738   1.3969   1.3990   1.4152   1.4243   1.4330
  1.4561   1.4747   1.4841   1.5018   1.5125   1.5241   1.5330   1.5622
  1.5726   1.6003   1.6144   1.6402   1.6464   1.6556   1.6818   1.7112
  1.7438   1.7660   1.7989   1.8039   1.8501   1.8556   1.8866   1.8993
  1.9112   1.9178   1.9334   1.9485   1.9753   1.9920   1.9977   2.0164
  2.0225   2.0510   2.0688   2.0856   2.0921   2.1057   2.1378   2.1610
  2.1806   2.2166   2.2250   2.2301   2.2746   2.3016   2.3116   2.3448
  2.3577   2.3756   2.3867   2.4108   2.4260   2.4464   2.4509   2.4687
  2.4772   2.5014   2.5053   2.5213   2.5414   2.5646   2.5968   2.6148
  2.7426   2.7754   2.7924   2.8013   2.8315   2.8940   2.9229   2.9304
  2.9557   2.9893   3.0138   3.0374   3.0435   3.0536   3.0726   3.0809
  3.1178   3.1257   3.1504   3.1660   3.1792   3.2108   3.2419   3.2570
  3.2771   3.2865   3.3157   3.3264   3.3364   3.3610   3.3655   3.3788
  3.3921   3.4028   3.4120   3.4291   3.4401   3.4544   3.4726   3.4803
  3.5035   3.5204   3.5359   3.5453   3.5628   3.5686   3.5910   3.5953
  3.6046   3.6196   3.6307   3.6388   3.6443   3.6496   3.6675   3.6794
  3.6916   3.6935   3.7451   3.7538   3.8039   3.8161   3.8235   3.8500
  3.9086   3.9329   3.9713   3.9891   4.0158   4.0242   4.0460   4.0669
  4.1175   4.1341   4.1426   4.2238   4.2465   4.2801   4.3176   4.3562
  4.3885   4.4216   4.4363   4.4711   4.5027   4.5765   4.5844   4.6545
  4.7070   4.7170   4.7507   4.7799   4.8280   4.8812   4.9063   4.9450
  4.9700   4.9905   5.0341   5.0494   5.0821   5.0939   5.1142   5.1635
  5.2524   5.2557   5.3036   5.3137   5.3243   5.3342   5.3555   5.3674
  5.4122   5.4425   5.4476   5.4723   5.4786   5.5274   5.5679   5.5737
  5.5968   5.6044   5.6335   5.6453   5.6500   5.6625   5.6851   5.6969
  5.7370   5.7583   5.7839   5.8092   5.8370   5.9095   5.9313   5.9744
  5.9882   6.0127   6.0276   6.0401   6.0516   6.0676   6.1042   6.1398
  6.2273   6.2692   6.2790   6.3123   6.3138   6.3185   6.3328   6.3505
  6.3698   6.4515   6.4644   6.4973   6.5036   6.5961   6.6205   6.6262
  6.6528   6.7352   6.7549   6.7805   6.7893   6.8138   6.8255   6.8554
  6.8751   6.8827   6.9795   6.9933   6.9999   7.0132   7.0249   7.0564
  7.1079   7.1324   7.1733   7.2798   7.3471   7.3814   7.4119   7.4651
  7.4718   7.4871   7.5363   7.5762   7.5959   7.6146   7.6982  14.8681
 14.9506  23.5625  23.7273  23.8957  24.0165  44.2626  44.3714  44.4131
 44.4145  44.4769  44.6074
 --------------------------------------------------------------
 
          Ground-State Mulliken Net Atomic Charges

     Atom                 Charge (a.u.)
  ----------------------------------------
      1 O                    -0.265516
      2 C                     0.774053
      3 C                     0.064101
      4 O                    -0.713406
      5 O                    -0.618019
      6 C                     0.296112
      7 Li                    0.887138
      8 H                     0.060561
      9 H                     0.051117
     10 H                     0.119974
     11 H                     0.116750
     12 O                    -0.621834
     13 C                     0.783388
     14 O                    -0.872379
     15 O                    -0.919973
     16 Li                    0.857931
  ----------------------------------------
  Sum of atomic charges =     0.000000

  Building new vdw surfaces
         Merz-Kollman RESP Net Atomic Charges

     Atom                 Charge (a.u.)
  ----------------------------------------
      1 O                    -0.445306
      2 C                     0.933459
      3 C                     0.176801
      4 O                    -0.724545
      5 O                    -0.725293
      6 C                     0.213920
      7 Li                    0.886311
      8 H                     0.096754
      9 H                     0.096754
     10 H                     0.143738
     11 H                     0.140791
     12 O                    -0.765490
     13 C                     0.903821
     14 O                    -0.882411
     15 O                    -0.882411
     16 Li                    0.833108
  ----------------------------------------
  Sum of atomic charges =     0.000000

  Related Dipole Moment =    11.7325 (X  1.9899 Y  5.3890 Z 10.2299)

 -----------------------------------------------------------------
                    Cartesian Multipole Moments
 -----------------------------------------------------------------
    Charge (ESU x 10^10)
                -0.0000
    Dipole Moment (Debye)
         X       1.9497      Y       5.4031      Z      10.3073
       Tot      11.7998
    Quadrupole Moments (Debye-Ang)
        XX     -39.7081     XY      41.0940     YY     -27.9745
        XZ      24.3649     YZ      26.8479     ZZ     -55.9757
    Octopole Moments (Debye-Ang^2)
       XXX    -519.3095    XXY     137.9966    XYY     -61.5747
       YYY       0.4835    XXZ      39.8758    XYZ     119.9781
       YYZ      65.1051    XZZ    -104.1781    YZZ      73.0651
       ZZZ      55.5534
    Hexadecapole Moments (Debye-Ang^3)
      XXXX   -4900.8471   XXXY     333.6405   XXYY    -230.2553
      XYYY      -5.0633   YYYY    -140.6878   XXXZ    -553.4264
      XXYZ     487.9007   XYYZ     211.6604   YYYZ      92.7991
      XXZZ    -619.7100   XYZZ     276.7052   YYZZ      73.1477
      XZZZ    -268.1253   YZZZ     114.7336   ZZZZ    -694.0432
 -----------------------------------------------------------------
 Calculating analytic gradient of the SCF energy
 Gradient of CDS energy
            1           2           3           4           5           6
    1  -0.0004921   0.0005504   0.0006559  -0.0001939  -0.0000930  -0.0004289
    2  -0.0001841  -0.0002321  -0.0011226   0.0005462  -0.0000325   0.0008665
    3  -0.0006436   0.0002914  -0.0002163   0.0002574  -0.0000305   0.0000571
            7           8           9          10          11          12
    1   0.0000233  -0.0001885  -0.0002314   0.0000452  -0.0000524   0.0007540
    2   0.0000009   0.0002974   0.0001465  -0.0002584  -0.0001052   0.0001215
    3   0.0000120   0.0001566   0.0000269   0.0000138  -0.0000039   0.0004339
           13          14          15          16
    1   0.0001468  -0.0005775   0.0001147  -0.0000325
    2   0.0005994  -0.0004164  -0.0002022  -0.0000249
    3  -0.0006228   0.0000331   0.0002286   0.0000063
 Gradient of SCF Energy
            1           2           3           4           5           6
    1   0.0021762  -0.0022844  -0.0024760   0.0023869   0.0011306  -0.0035929
    2  -0.0019902   0.0064254  -0.0005399  -0.0064733  -0.0043412  -0.0039309
    3   0.0006931   0.0020280  -0.0013146  -0.0024454  -0.0017916  -0.0012859
            7           8           9          10          11          12
    1  -0.0014053   0.0028843   0.0003758   0.0026826   0.0022772  -0.0075677
    2   0.0066064   0.0016625  -0.0001942   0.0012525   0.0025363  -0.0030831
    3   0.0032883   0.0013424   0.0010706   0.0012458   0.0023208  -0.0048447
           13          14          15          16
    1   0.0035691   0.0036571   0.0020454  -0.0058587
    2   0.0013524   0.0035118   0.0019718  -0.0047664
    3   0.0014891  -0.0029464  -0.0027498   0.0039003
 Max gradient component =       7.568E-03
 RMS gradient           =       3.234E-03
 Computing fast CPCM-SWIG gradient
 Updating gradient with PCM contributions...
 -- total gradient after adding PCM contribution --
---------------------------------------------------
  Atom         X              Y              Z     
---------------------------------------------------
   1       0.000470      -0.000122       0.000238
   2      -0.000177       0.000062      -0.000016
   3      -0.000242       0.000030      -0.000068
   4       0.000017      -0.000081      -0.000072
   5      -0.000002       0.000098       0.000031
   6      -0.000113      -0.000036      -0.000092
   7      -0.000004       0.000006       0.000003
   8      -0.000031      -0.000001      -0.000034
   9       0.000010      -0.000010      -0.000005
  10       0.000004       0.000017       0.000017
  11       0.000025       0.000015       0.000007
  12       0.000032      -0.000001       0.000004
  13       0.000016       0.000009      -0.000019
  14      -0.000006       0.000012       0.000013
  15      -0.000002       0.000004       0.000003
  16       0.000003      -0.000004      -0.000009
---------------------------------------------------
 Number of fixed atoms: 0
 Gradient time:  CPU 981.46 s  wall 42.28 s
 ----------------------------------------------------------------
             Standard Nuclear Orientation (Angstroms)
    I     Atom           X                Y                Z
 ----------------------------------------------------------------
    1      O       4.9480899061    -0.0733925555     1.1007361448
    2      C       4.9078878412     0.9862520443     1.8804956768
    3      C       3.9054629496    -0.0469171405     0.0834562333
    4      O       5.7074141246     1.1632906182     2.8073684385
    5      O       3.9696731297     1.8414373659     1.6199803497
    6      C       3.0276551257     1.1787918898     0.2653789766
    7      Li      4.7631018428     2.7913140698     3.1817808793
    8      H       3.3207295773    -0.9545803911     0.2069505565
    9      H       4.4047702004    -0.0378006321    -0.8824213106
   10      H       2.1056677832     1.0804142130     0.8139624333
   11      H       3.1689219248     2.0386583293    -0.3677420483
   12      O       1.9638253141     0.4838664380    -1.3402365495
   13      C       0.9650737897    -0.2679753844    -1.0532407743
   14      O       0.1752897735    -0.7063773088    -1.9751199028
   15      O       0.7139970998    -0.6151561678     0.1738044683
   16      Li     -0.7064757984    -1.5251434368    -0.5777135511
 ----------------------------------------------------------------
 Nuclear Repulsion Energy =         595.53265412 hartrees
 There are       41 alpha and       41 beta electrons
 Discretize the solute cavity surface with Lebedev spheres
	Using 110 Lebedev grid points for each H atom
	Using 194 Lebedev grid points for other atoms
	Atomic van der Waals radii will be scaled by 1.20
 Remove points where switching function is < 1.0e-08
 Keep 1068 surface tesserae and discard 1700 interior tesserae
 Molecular Surface Area = 238.381 Angst**2
 Requested basis set is def2-TZVPPD
 There are 184 shells and 500 basis functions
 A cutoff of  1.0D-14 yielded  15156 shell pairs
 There are    112788 function pairs (    143689 Cartesian)
 Smallest overlap matrix eigenvalue = 3.51E-06
 Guess MOs from SCF MO coefficient file

 -----------------------------------------------------------------------
  General SCF calculation program by
  Eric Jon Sundstrom, Paul Horn, Yuezhi Mao, Dmitri Zuev, Alec White,
  David Stuck, Shaama M.S., Shane Yost, Joonho Lee, David Small,
  Daniel Levine, Susi Lehtola, Hugh Burton, Evgeny Epifanovsky,
  Bang C. Huynh
 -----------------------------------------------------------------------
 Exchange:     0.1670 Hartree-Fock + 1.0000 wB97X-V + LR-HF
 Correlation:  1.0000 wB97X-V
 Using SG-3 standard quadrature grid
 Nonlocal Correlation:  VV10 with C = 0.0100 and b = 6.00 and scale = 1.00000
 Grid used for NLC:  SG-1 standard quadrature
 
 Citation of the SMD model:
 Marenich, A.V.; Cramer, C.J.; Truhlar, D.G.
 J. Phys. Chem. B 2009, 113, 6378-6396.
 iSolventCode=           0
 Solvent: other                                                           
 
 vradii
            1           2           3           4           5           6
    1   2.2940000   1.8500000   1.8500000   2.2940000   2.2940000   1.8500000
            7           8           9          10          11          12
    1   2.1476001   1.2000000   1.2000000   1.2000000   1.2000000   2.2940000
           13          14          15          16
    1   1.8500000   2.2940000   2.2940000   2.1476001
 using 32 threads for integral computing
 -------------------------------------------------------
 OpenMP Integral computing Module                
 Release: version 1.0, May 2013, Q-Chem Inc. Pittsburgh 
 -------------------------------------------------------
 using 32 threads for integral computing
 -------------------------------------------------------
 OpenMP Integral computing Module                
 Release: version 1.0, May 2013, Q-Chem Inc. Pittsburgh 
 -------------------------------------------------------
 -------------------------------------------------------
 OpenMP BLAS3 based DFT computing Module                
 Release: version 1.0, May 2013, Q-Chem Inc. Pittsburgh 
 -------------------------------------------------------
 -------------------------------------------------------
 OpenMP BLAS3 based DFT computing Module                
 Release: version 1.0, May 2013, Q-Chem Inc. Pittsburgh 
 -------------------------------------------------------
 -------------------------------------------------------
 OpenMP BLAS3 based DFT computing Module                
 Release: version 1.0, May 2013, Q-Chem Inc. Pittsburgh 
 -------------------------------------------------------
 A restricted SCF calculation will be
 performed using Roothaan-Hall, DIIS
 SCF converges when DIIS error is below 1.0e-08
 ---------------------------------------
  Cycle       Energy         DIIS error
 ---------------------------------------
    1    -620.7822214493      2.24e-04  Roothaan Step
 ---------------------------------------
  Cycle       Energy         DIIS error
 ---------------------------------------
    1    -621.4344539170      2.72e-04  
    2    -621.4362276087      2.89e-04  
    3    -621.4379966895      5.73e-05  
    4    -621.4381008636      2.01e-05  
    5    -621.4381203464      9.80e-06  
    6    -621.4381244137      4.09e-06  
    7    -621.4381251393      1.57e-06  
    8    -621.4381252623      4.70e-07  
    9    -621.4381252753      2.44e-07  
   10    -621.4381252776      5.14e-08  
   11    -621.4381252778      2.56e-08  
   12    -621.4381252778      9.37e-09  Convergence criterion met
 ---------------------------------------
 SCF time:   CPU 4301.07s  wall 166.00s 
(3)  G-ENP(liq) elect-nuc-pol free energy of system     -621.438125278 a.u.
(4)  G-CDS(liq) cavity-dispersion-solvent structure 
     free energy                                               -3.3940 kcal/mol
(6)  G-S(liq) free energy of system                     -621.443533979 a.u.
 SCF   energy in the final basis set =     -621.4381252778
 Total energy in the final basis set =     -621.4435339786
 
 --------------------------------------------------------------
 
                    Orbital Energies (a.u.)
 --------------------------------------------------------------
 
 Alpha MOs
 -- Occupied --
-19.2735 -19.2449 -19.2121 -19.1443 -19.1338 -19.1310 -10.4532 -10.3640
-10.3485 -10.3331  -2.1319  -2.0602  -1.2909  -1.1810  -1.1689  -1.1478
 -1.0514  -1.0333  -0.9042  -0.7933  -0.7041  -0.6477  -0.6344  -0.6184
 -0.5916  -0.5728  -0.5534  -0.5329  -0.5203  -0.5185  -0.5133  -0.4962
 -0.4776  -0.4304  -0.4248  -0.4188  -0.3797  -0.3567  -0.3513  -0.3432
 -0.3177
 -- Virtual --
  0.0251   0.0327   0.0427   0.0431   0.0465   0.0512   0.0527   0.0651
  0.0868   0.0946   0.1080   0.1120   0.1166   0.1185   0.1220   0.1270
  0.1286   0.1364   0.1404   0.1445   0.1484   0.1521   0.1558   0.1578
  0.1640   0.1646   0.1707   0.1730   0.1777   0.2039   0.2053   0.2067
  0.2087   0.2194   0.2257   0.2265   0.2349   0.2397   0.2543   0.2654
  0.2702   0.2714   0.2768   0.2813   0.2891   0.2991   0.3012   0.3113
  0.3136   0.3209   0.3359   0.3423   0.3468   0.3511   0.3554   0.3586
  0.3630   0.3649   0.3700   0.3813   0.3851   0.3878   0.3908   0.4018
  0.4065   0.4074   0.4183   0.4194   0.4199   0.4291   0.4361   0.4421
  0.4490   0.4598   0.4652   0.4700   0.4739   0.4835   0.4854   0.4901
  0.4971   0.5020   0.5106   0.5162   0.5212   0.5245   0.5286   0.5317
  0.5358   0.5438   0.5488   0.5527   0.5548   0.5671   0.5699   0.5782
  0.5872   0.5950   0.6015   0.6049   0.6124   0.6158   0.6228   0.6355
  0.6384   0.6409   0.6437   0.6585   0.6652   0.6702   0.6799   0.6843
  0.6901   0.6972   0.7026   0.7101   0.7103   0.7181   0.7278   0.7326
  0.7411   0.7526   0.7542   0.7580   0.7619   0.7674   0.7791   0.7866
  0.8002   0.8043   0.8064   0.8124   0.8153   0.8273   0.8317   0.8398
  0.8449   0.8475   0.8670   0.8763   0.8813   0.8865   0.8948   0.9065
  0.9143   0.9274   0.9366   0.9447   0.9646   0.9688   0.9812   0.9921
  1.0038   1.0096   1.0193   1.0231   1.0318   1.0440   1.0582   1.0662
  1.0725   1.0831   1.0932   1.0961   1.1042   1.1060   1.1386   1.1552
  1.1660   1.1741   1.1992   1.2169   1.2280   1.2381   1.2539   1.2557
  1.2682   1.2790   1.2967   1.2990   1.3098   1.3142   1.3255   1.3396
  1.3623   1.3673   1.3738   1.3969   1.3991   1.4152   1.4243   1.4330
  1.4562   1.4748   1.4842   1.5020   1.5125   1.5243   1.5330   1.5624
  1.5727   1.6004   1.6146   1.6402   1.6464   1.6556   1.6820   1.7112
  1.7438   1.7661   1.7989   1.8039   1.8502   1.8558   1.8866   1.8993
  1.9113   1.9178   1.9334   1.9487   1.9754   1.9920   1.9978   2.0166
  2.0226   2.0510   2.0689   2.0857   2.0923   2.1060   2.1377   2.1609
  2.1807   2.2169   2.2250   2.2304   2.2748   2.3017   2.3115   2.3448
  2.3579   2.3757   2.3867   2.4110   2.4260   2.4464   2.4509   2.4689
  2.4771   2.5015   2.5053   2.5214   2.5415   2.5647   2.5973   2.6150
  2.7427   2.7755   2.7925   2.8010   2.8316   2.8940   2.9234   2.9306
  2.9560   2.9895   3.0138   3.0374   3.0435   3.0537   3.0727   3.0810
  3.1180   3.1258   3.1505   3.1663   3.1793   3.2112   3.2422   3.2570
  3.2772   3.2865   3.3160   3.3263   3.3366   3.3612   3.3656   3.3788
  3.3922   3.4028   3.4120   3.4292   3.4401   3.4544   3.4726   3.4804
  3.5035   3.5205   3.5358   3.5453   3.5630   3.5685   3.5911   3.5952
  3.6046   3.6197   3.6307   3.6388   3.6444   3.6500   3.6676   3.6795
  3.6917   3.6935   3.7451   3.7541   3.8041   3.8163   3.8236   3.8502
  3.9088   3.9331   3.9716   3.9893   4.0161   4.0243   4.0461   4.0669
  4.1177   4.1345   4.1427   4.2240   4.2466   4.2809   4.3178   4.3564
  4.3887   4.4218   4.4364   4.4716   4.5028   4.5765   4.5845   4.6545
  4.7071   4.7171   4.7509   4.7798   4.8282   4.8810   4.9063   4.9450
  4.9702   4.9905   5.0340   5.0498   5.0822   5.0949   5.1142   5.1635
  5.2527   5.2556   5.3036   5.3135   5.3243   5.3343   5.3555   5.3674
  5.4123   5.4425   5.4476   5.4723   5.4784   5.5275   5.5680   5.5737
  5.5972   5.6046   5.6335   5.6453   5.6503   5.6628   5.6852   5.6972
  5.7377   5.7584   5.7839   5.8094   5.8371   5.9105   5.9316   5.9748
  5.9882   6.0129   6.0285   6.0402   6.0517   6.0676   6.1050   6.1398
  6.2272   6.2692   6.2798   6.3128   6.3144   6.3187   6.3329   6.3509
  6.3699   6.4515   6.4649   6.4973   6.5034   6.5967   6.6205   6.6262
  6.6528   6.7351   6.7549   6.7805   6.7894   6.8138   6.8256   6.8558
  6.8752   6.8833   6.9795   6.9933   7.0000   7.0132   7.0250   7.0565
  7.1081   7.1333   7.1733   7.2798   7.3472   7.3815   7.4122   7.4655
  7.4718   7.4872   7.5363   7.5763   7.5959   7.6148   7.6983  14.8681
 14.9507  23.5640  23.7277  23.8957  24.0167  44.2626  44.3714  44.4132
 44.4146  44.4770  44.6092
 --------------------------------------------------------------
 
          Ground-State Mulliken Net Atomic Charges

     Atom                 Charge (a.u.)
  ----------------------------------------
      1 O                    -0.265422
      2 C                     0.774268
      3 C                     0.064096
      4 O                    -0.713255
      5 O                    -0.618280
      6 C                     0.296007
      7 Li                    0.887156
      8 H                     0.060684
      9 H                     0.051054
     10 H                     0.119911
     11 H                     0.116761
     12 O                    -0.621864
     13 C                     0.783381
     14 O                    -0.872423
     15 O                    -0.919995
     16 Li                    0.857922
  ----------------------------------------
  Sum of atomic charges =     0.000000

  Building new vdw surfaces
         Merz-Kollman RESP Net Atomic Charges

     Atom                 Charge (a.u.)
  ----------------------------------------
      1 O                    -0.445688
      2 C                     0.933844
      3 C                     0.177890
      4 O                    -0.724465
      5 O                    -0.725749
      6 C                     0.214430
      7 Li                    0.886394
      8 H                     0.096420
      9 H                     0.096420
     10 H                     0.143630
     11 H                     0.140534
     12 O                    -0.765677
     13 C                     0.903720
     14 O                    -0.882392
     15 O                    -0.882392
     16 Li                    0.833080
  ----------------------------------------
  Sum of atomic charges =     0.000000

  Related Dipole Moment =    11.7377 (X  1.9979 Y  5.3894 Z 10.2340)

 -----------------------------------------------------------------
                    Cartesian Multipole Moments
 -----------------------------------------------------------------
    Charge (ESU x 10^10)
                 0.0000
    Dipole Moment (Debye)
         X       1.9575      Y       5.4034      Z      10.3117
       Tot      11.8050
    Quadrupole Moments (Debye-Ang)
        XX     -39.6432     XY      41.0980     YY     -27.9774
        XZ      24.3884     YZ      26.8507     ZZ     -55.9675
    Octopole Moments (Debye-Ang^2)
       XXX    -518.8267    XXY     138.0294    XYY     -61.5654
       YYY       0.4759    XXZ      40.0183    XYZ     119.9974
       YYZ      65.1105    XZZ    -104.1073    YZZ      73.0776
       ZZZ      55.5987
    Hexadecapole Moments (Debye-Ang^3)
      XXXX   -4897.3112   XXXY     333.8591   XXYY    -230.1209
      XYYY      -5.0864   YYYY    -140.7208   XXXZ    -552.5303
      XXYZ     488.0194   XYYZ     211.7049   YYYZ      92.7995
      XXZZ    -619.2404   XYZZ     276.7787   YYZZ      73.1650
      XZZZ    -267.8590   YZZZ     114.7853   ZZZZ    -693.9137
 -----------------------------------------------------------------
 Calculating analytic gradient of the SCF energy
 Gradient of CDS energy
            1           2           3           4           5           6
    1  -0.0004955   0.0005543   0.0006573  -0.0001951  -0.0000930  -0.0004289
    2  -0.0001818  -0.0002366  -0.0011220   0.0005483  -0.0000325   0.0008665
    3  -0.0006443   0.0002907  -0.0002170   0.0002587  -0.0000305   0.0000571
            7           8           9          10          11          12
    1   0.0000233  -0.0001881  -0.0002325   0.0000452  -0.0000524   0.0007540
    2   0.0000009   0.0002970   0.0001465  -0.0002584  -0.0001052   0.0001215
    3   0.0000120   0.0001576   0.0000266   0.0000138  -0.0000039   0.0004339
           13          14          15          16
    1   0.0001468  -0.0005775   0.0001147  -0.0000325
    2   0.0005994  -0.0004164  -0.0002022  -0.0000249
    3  -0.0006228   0.0000331   0.0002286   0.0000063
 Gradient of SCF Energy
            1           2           3           4           5           6
    1   0.0012118  -0.0018961  -0.0020233   0.0023602   0.0011196  -0.0035228
    2  -0.0017291   0.0063336  -0.0006321  -0.0063272  -0.0045108  -0.0039440
    3   0.0001919   0.0020801  -0.0011663  -0.0022895  -0.0018200  -0.0012248
            7           8           9          10          11          12
    1  -0.0013933   0.0029531   0.0003480   0.0026910   0.0022862  -0.0075422
    2   0.0065979   0.0016604  -0.0002008   0.0012472   0.0025274  -0.0030854
    3   0.0032944   0.0014267   0.0010787   0.0012400   0.0023260  -0.0048356
           13          14          15          16
    1   0.0035510   0.0036662   0.0020522  -0.0058615
    2   0.0013372   0.0035203   0.0019744  -0.0047685
    3   0.0014945  -0.0029415  -0.0027553   0.0039008
 Max gradient component =       7.542E-03
 RMS gradient           =       3.198E-03
 Computing fast CPCM-SWIG gradient
 Updating gradient with PCM contributions...
 -- total gradient after adding PCM contribution --
---------------------------------------------------
  Atom         X              Y              Z     
---------------------------------------------------
   1      -0.000490       0.000137      -0.000265
   2       0.000203      -0.000034       0.000035
   3       0.000214      -0.000055       0.000085
   4      -0.000007       0.000064       0.000080
   5      -0.000007      -0.000067       0.000006
   6      -0.000037      -0.000051      -0.000033
   7       0.000004      -0.000001       0.000008
   8       0.000035      -0.000011       0.000051
   9      -0.000017      -0.000016       0.000001
  10       0.000007       0.000012       0.000015
  11       0.000032       0.000011       0.000005
  12       0.000063      -0.000001       0.000015
  13      -0.000007      -0.000011      -0.000012
  14       0.000004       0.000021       0.000018
  15       0.000004       0.000007      -0.000002
  16       0.000001      -0.000006      -0.000008
---------------------------------------------------
 Number of fixed atoms: 0
 Gradient time:  CPU 979.88 s  wall 42.03 s
 ----------------------------------------------------------------
             Standard Nuclear Orientation (Angstroms)
    I     Atom           X                Y                Z
 ----------------------------------------------------------------
    1      O       4.9490899061    -0.0723925555     1.1007361448
    2      C       4.9078878412     0.9862520443     1.8804956768
    3      C       3.9054629496    -0.0469171405     0.0834562333
    4      O       5.7074141246     1.1632906182     2.8073684385
    5      O       3.9696731297     1.8414373659     1.6199803497
    6      C       3.0276551257     1.1787918898     0.2653789766
    7      Li      4.7631018428     2.7913140698     3.1817808793
    8      H       3.3207295773    -0.9545803911     0.2069505565
    9      H       4.4047702004    -0.0378006321    -0.8824213106
   10      H       2.1056677832     1.0804142130     0.8139624333
   11      H       3.1689219248     2.0386583293    -0.3677420483
   12      O       1.9638253141     0.4838664380    -1.3402365495
   13      C       0.9650737897    -0.2679753844    -1.0532407743
   14      O       0.1752897735    -0.7063773088    -1.9751199028
   15      O       0.7139970998    -0.6151561678     0.1738044683
   16      Li     -0.7064757984    -1.5251434368    -0.5777135511
 ----------------------------------------------------------------
 Nuclear Repulsion Energy =         595.53667019 hartrees
 There are       41 alpha and       41 beta electrons
 Discretize the solute cavity surface with Lebedev spheres
	Using 110 Lebedev grid points for each H atom
	Using 194 Lebedev grid points for other atoms
	Atomic van der Waals radii will be scaled by 1.20
 Remove points where switching function is < 1.0e-08
 Keep 1067 surface tesserae and discard 1701 interior tesserae
 Molecular Surface Area = 238.377 Angst**2
 Requested basis set is def2-TZVPPD
 There are 184 shells and 500 basis functions
 A cutoff of  1.0D-14 yielded  15156 shell pairs
 There are    112788 function pairs (    143689 Cartesian)
 Smallest overlap matrix eigenvalue = 3.51E-06
 Guess MOs from SCF MO coefficient file

 -----------------------------------------------------------------------
  General SCF calculation program by
  Eric Jon Sundstrom, Paul Horn, Yuezhi Mao, Dmitri Zuev, Alec White,
  David Stuck, Shaama M.S., Shane Yost, Joonho Lee, David Small,
  Daniel Levine, Susi Lehtola, Hugh Burton, Evgeny Epifanovsky,
  Bang C. Huynh
 -----------------------------------------------------------------------
 Exchange:     0.1670 Hartree-Fock + 1.0000 wB97X-V + LR-HF
 Correlation:  1.0000 wB97X-V
 Using SG-3 standard quadrature grid
 Nonlocal Correlation:  VV10 with C = 0.0100 and b = 6.00 and scale = 1.00000
 Grid used for NLC:  SG-1 standard quadrature
 
 Citation of the SMD model:
 Marenich, A.V.; Cramer, C.J.; Truhlar, D.G.
 J. Phys. Chem. B 2009, 113, 6378-6396.
 iSolventCode=           0
 Solvent: other                                                           
 
 vradii
            1           2           3           4           5           6
    1   2.2940000   1.8500000   1.8500000   2.2940000   2.2940000   1.8500000
            7           8           9          10          11          12
    1   2.1476001   1.2000000   1.2000000   1.2000000   1.2000000   2.2940000
           13          14          15          16
    1   1.8500000   2.2940000   2.2940000   2.1476001
 using 32 threads for integral computing
 -------------------------------------------------------
 OpenMP Integral computing Module                
 Release: version 1.0, May 2013, Q-Chem Inc. Pittsburgh 
 -------------------------------------------------------
 using 32 threads for integral computing
 -------------------------------------------------------
 OpenMP Integral computing Module                
 Release: version 1.0, May 2013, Q-Chem Inc. Pittsburgh 
 -------------------------------------------------------
 -------------------------------------------------------
 OpenMP BLAS3 based DFT computing Module                
 Release: version 1.0, May 2013, Q-Chem Inc. Pittsburgh 
 -------------------------------------------------------
 -------------------------------------------------------
 OpenMP BLAS3 based DFT computing Module                
 Release: version 1.0, May 2013, Q-Chem Inc. Pittsburgh 
 -------------------------------------------------------
 -------------------------------------------------------
 OpenMP BLAS3 based DFT computing Module                
 Release: version 1.0, May 2013, Q-Chem Inc. Pittsburgh 
 -------------------------------------------------------
 A restricted SCF calculation will be
 performed using Roothaan-Hall, DIIS
 SCF converges when DIIS error is below 1.0e-08
 ---------------------------------------
  Cycle       Energy         DIIS error
 ---------------------------------------
    1    -620.7815071358      2.24e-04  Roothaan Step
 ---------------------------------------
  Cycle       Energy         DIIS error
 ---------------------------------------
    1    -621.4344538777      2.72e-04  
    2    -621.4362224734      2.89e-04  
    3    -621.4379953744      5.73e-05  
    4    -621.4380993477      2.01e-05  
    5    -621.4381188207      9.77e-06  
    6    -621.4381228812      4.08e-06  
    7    -621.4381236062      1.58e-06  
    8    -621.4381237296      4.70e-07  
    9    -621.4381237426      2.44e-07  
   10    -621.4381237449      5.13e-08  
   11    -621.4381237451      2.55e-08  
   12    -621.4381237451      9.38e-09  Convergence criterion met
 ---------------------------------------
 SCF time:   CPU 4298.88s  wall 166.00s 
(3)  G-ENP(liq) elect-nuc-pol free energy of system     -621.438123745 a.u.
(4)  G-CDS(liq) cavity-dispersion-solvent structure 
     free energy                                               -3.3948 kcal/mol
(6)  G-S(liq) free energy of system                     -621.443533720 a.u.
 SCF   energy in the final basis set =     -621.4381237451
 Total energy in the final basis set =     -621.4435337197
 
 --------------------------------------------------------------
 
                    Orbital Energies (a.u.)
 --------------------------------------------------------------
 
 Alpha MOs
 -- Occupied --
-19.2735 -19.2448 -19.2120 -19.1443 -19.1338 -19.1310 -10.4530 -10.3640
-10.3485 -10.3332  -2.1318  -2.0602  -1.2911  -1.1809  -1.1689  -1.1478
 -1.0514  -1.0333  -0.9043  -0.7933  -0.7041  -0.6478  -0.6344  -0.6184
 -0.5916  -0.5728  -0.5533  -0.5328  -0.5203  -0.5185  -0.5133  -0.4962
 -0.4777  -0.4303  -0.4248  -0.4189  -0.3798  -0.3567  -0.3513  -0.3432
 -0.3177
 -- Virtual --
  0.0251   0.0327   0.0427   0.0431   0.0465   0.0512   0.0527   0.0651
  0.0868   0.0946   0.1080   0.1120   0.1167   0.1185   0.1220   0.1270
  0.1286   0.1364   0.1404   0.1445   0.1485   0.1521   0.1558   0.1578
  0.1640   0.1646   0.1707   0.1730   0.1777   0.2039   0.2053   0.2067
  0.2087   0.2194   0.2257   0.2265   0.2349   0.2396   0.2543   0.2654
  0.2702   0.2714   0.2768   0.2812   0.2890   0.2991   0.3012   0.3113
  0.3136   0.3209   0.3360   0.3423   0.3468   0.3511   0.3554   0.3586
  0.3630   0.3649   0.3700   0.3813   0.3850   0.3878   0.3908   0.4018
  0.4065   0.4074   0.4183   0.4194   0.4199   0.4291   0.4361   0.4421
  0.4490   0.4598   0.4652   0.4700   0.4740   0.4835   0.4854   0.4901
  0.4971   0.5020   0.5106   0.5163   0.5212   0.5245   0.5288   0.5318
  0.5358   0.5439   0.5488   0.5527   0.5548   0.5671   0.5699   0.5782
  0.5872   0.5950   0.6016   0.6049   0.6124   0.6158   0.6228   0.6355
  0.6384   0.6409   0.6437   0.6585   0.6652   0.6702   0.6798   0.6843
  0.6901   0.6972   0.7026   0.7101   0.7103   0.7182   0.7278   0.7325
  0.7411   0.7526   0.7541   0.7580   0.7619   0.7674   0.7791   0.7866
  0.8002   0.8043   0.8063   0.8124   0.8153   0.8273   0.8317   0.8398
  0.8449   0.8475   0.8670   0.8764   0.8813   0.8865   0.8948   0.9065
  0.9143   0.9274   0.9366   0.9447   0.9647   0.9688   0.9812   0.9921
  1.0038   1.0096   1.0193   1.0231   1.0319   1.0441   1.0583   1.0662
  1.0726   1.0831   1.0932   1.0961   1.1040   1.1060   1.1387   1.1552
  1.1660   1.1742   1.1992   1.2168   1.2280   1.2381   1.2539   1.2557
  1.2681   1.2790   1.2967   1.2990   1.3098   1.3142   1.3256   1.3395
  1.3623   1.3673   1.3738   1.3970   1.3990   1.4151   1.4244   1.4330
  1.4562   1.4748   1.4842   1.5020   1.5125   1.5242   1.5330   1.5623
  1.5726   1.6003   1.6147   1.6402   1.6465   1.6556   1.6819   1.7112
  1.7438   1.7661   1.7990   1.8039   1.8502   1.8559   1.8867   1.8993
  1.9113   1.9179   1.9334   1.9487   1.9754   1.9920   1.9978   2.0166
  2.0226   2.0510   2.0689   2.0857   2.0921   2.1059   2.1377   2.1609
  2.1807   2.2171   2.2250   2.2303   2.2748   2.3016   2.3116   2.3448
  2.3579   2.3757   2.3868   2.4110   2.4261   2.4467   2.4511   2.4689
  2.4771   2.5015   2.5052   2.5213   2.5415   2.5644   2.5970   2.6150
  2.7427   2.7755   2.7924   2.8012   2.8316   2.8940   2.9232   2.9305
  2.9559   2.9893   3.0138   3.0374   3.0436   3.0538   3.0727   3.0810
  3.1180   3.1258   3.1505   3.1662   3.1794   3.2111   3.2422   3.2571
  3.2772   3.2865   3.3160   3.3264   3.3366   3.3612   3.3657   3.3788
  3.3922   3.4028   3.4120   3.4292   3.4401   3.4544   3.4727   3.4804
  3.5036   3.5205   3.5359   3.5453   3.5632   3.5685   3.5913   3.5953
  3.6046   3.6197   3.6307   3.6389   3.6443   3.6500   3.6677   3.6795
  3.6916   3.6935   3.7451   3.7540   3.8041   3.8162   3.8237   3.8501
  3.9089   3.9331   3.9714   3.9893   4.0160   4.0243   4.0461   4.0670
  4.1178   4.1343   4.1427   4.2241   4.2466   4.2809   4.3178   4.3564
  4.3887   4.4218   4.4364   4.4715   4.5027   4.5765   4.5844   4.6546
  4.7070   4.7171   4.7508   4.7798   4.8280   4.8811   4.9063   4.9450
  4.9700   4.9905   5.0341   5.0496   5.0822   5.0944   5.1143   5.1635
  5.2526   5.2558   5.3035   5.3134   5.3243   5.3343   5.3555   5.3674
  5.4122   5.4425   5.4476   5.4724   5.4784   5.5275   5.5680   5.5737
  5.5971   5.6048   5.6336   5.6453   5.6503   5.6628   5.6851   5.6973
  5.7375   5.7584   5.7839   5.8095   5.8371   5.9100   5.9316   5.9748
  5.9883   6.0131   6.0282   6.0402   6.0517   6.0676   6.1049   6.1398
  6.2273   6.2694   6.2802   6.3127   6.3142   6.3186   6.3330   6.3512
  6.3699   6.4516   6.4653   6.4973   6.5038   6.5968   6.6206   6.6263
  6.6528   6.7352   6.7549   6.7805   6.7894   6.8139   6.8255   6.8557
  6.8752   6.8833   6.9796   6.9934   7.0000   7.0133   7.0250   7.0565
  7.1082   7.1330   7.1734   7.2799   7.3471   7.3814   7.4119   7.4658
  7.4718   7.4871   7.5363   7.5766   7.5959   7.6157   7.6988  14.8682
 14.9506  23.5636  23.7276  23.8957  24.0188  44.2626  44.3715  44.4133
 44.4146  44.4770  44.6087
 --------------------------------------------------------------
 
          Ground-State Mulliken Net Atomic Charges

     Atom                 Charge (a.u.)
  ----------------------------------------
      1 O                    -0.265374
      2 C                     0.774698
      3 C                     0.064120
      4 O                    -0.713663
      5 O                    -0.618375
      6 C                     0.296064
      7 Li                    0.887140
      8 H                     0.060638
      9 H                     0.051112
     10 H                     0.119914
     11 H                     0.116705
     12 O                    -0.621891
     13 C                     0.783372
     14 O                    -0.872401
     15 O                    -0.919985
     16 Li                    0.857928
  ----------------------------------------
  Sum of atomic charges =     0.000000

  Building new vdw surfaces
         Merz-Kollman RESP Net Atomic Charges

     Atom                 Charge (a.u.)
  ----------------------------------------
      1 O                    -0.445528
      2 C                     0.934200
      3 C                     0.177362
      4 O                    -0.724834
      5 O                    -0.725935
      6 C                     0.214606
      7 Li                    0.886339
      8 H                     0.096630
      9 H                     0.096630
     10 H                     0.143534
     11 H                     0.140573
     12 O                    -0.765653
     13 C                     0.903801
     14 O                    -0.882408
     15 O                    -0.882408
     16 Li                    0.833090
  ----------------------------------------
  Sum of atomic charges =     0.000000

  Related Dipole Moment =    11.7305 (X  1.9937 Y  5.3844 Z 10.2293)

 -----------------------------------------------------------------
                    Cartesian Multipole Moments
 -----------------------------------------------------------------
    Charge (ESU x 10^10)
                -0.0000
    Dipole Moment (Debye)
         X       1.9534      Y       5.3986      Z      10.3067
       Tot      11.7978
    Quadrupole Moments (Debye-Ang)
        XX     -39.6788     XY      41.0753     YY     -27.9803
        XZ      24.3618     YZ      26.8410     ZZ     -55.9799
    Octopole Moments (Debye-Ang^2)
       XXX    -519.0989    XXY     137.9106    XYY     -61.5883
       YYY       0.4482    XXZ      39.8659    XYZ     119.9486
       YYZ      65.0964    XZZ    -104.1862    YZZ      73.0460
       ZZZ      55.5468
    Hexadecapole Moments (Debye-Ang^3)
      XXXX   -4899.3294   XXXY     333.1925   XXYY    -230.2693
      XYYY      -5.2192   YYYY    -140.7368   XXXZ    -553.4406
      XXYZ     487.7600   XYYZ     211.6318   YYYZ      92.7503
      XXZZ    -619.7200   XYZZ     276.6197   YYZZ      73.1262
      XZZZ    -268.1502   YZZZ     114.6874   ZZZZ    -694.0830
 -----------------------------------------------------------------
 Calculating analytic gradient of the SCF energy
 Gradient of CDS energy
            1           2           3           4           5           6
    1  -0.0004949   0.0005531   0.0006573  -0.0001944  -0.0000930  -0.0004290
    2  -0.0001758  -0.0002413  -0.0011235   0.0005475  -0.0000325   0.0008666
    3  -0.0006399   0.0002869  -0.0002158   0.0002580  -0.0000305   0.0000571
            7           8           9          10          11          12
    1   0.0000233  -0.0001888  -0.0002319   0.0000452  -0.0000524   0.0007540
    2   0.0000009   0.0002976   0.0001467  -0.0002584  -0.0001052   0.0001215
    3   0.0000120   0.0001564   0.0000268   0.0000138  -0.0000039   0.0004339
           13          14          15          16
    1   0.0001468  -0.0005775   0.0001147  -0.0000325
    2   0.0005994  -0.0004164  -0.0002022  -0.0000249
    3  -0.0006228   0.0000331   0.0002286   0.0000063
 Gradient of SCF Energy
            1           2           3           4           5           6
    1   0.0015623  -0.0020116  -0.0022281   0.0023407   0.0012262  -0.0035529
    2  -0.0010965   0.0059221  -0.0007353  -0.0064257  -0.0045575  -0.0039647
    3   0.0008060   0.0018781  -0.0012434  -0.0024465  -0.0018534  -0.0012667
            7           8           9          10          11          12
    1  -0.0013986   0.0028750   0.0003590   0.0026880   0.0022823  -0.0075506
    2   0.0066080   0.0016669  -0.0001910   0.0012497   0.0025300  -0.0030716
    3   0.0032965   0.0013352   0.0010601   0.0012473   0.0023226  -0.0048349
           13          14          15          16
    1   0.0035595   0.0036622   0.0020456  -0.0058587
    2   0.0013388   0.0035175   0.0019777  -0.0047683
    3   0.0014969  -0.0029450  -0.0027536   0.0039007
 Max gradient component =       7.551E-03
 RMS gradient           =       3.193E-03
 Computing fast CPCM-SWIG gradient
 Updating gradient with PCM contributions...
 -- total gradient after adding PCM contribution --
---------------------------------------------------
  Atom         X              Y              Z     
---------------------------------------------------
   1      -0.000139       0.000767       0.000350
   2       0.000093      -0.000447      -0.000171
   3       0.000006      -0.000171      -0.000002
   4      -0.000030      -0.000033      -0.000074
   5       0.000096      -0.000111      -0.000025
   6      -0.000072      -0.000071      -0.000074
   7       0.000001       0.000009       0.000011
   8      -0.000038       0.000008      -0.000040
   9      -0.000011      -0.000005      -0.000010
  10       0.000006       0.000015       0.000019
  11       0.000030       0.000014       0.000007
  12       0.000052       0.000009       0.000014
  13       0.000003      -0.000003      -0.000010
  14       0.000001       0.000017       0.000015
  15       0.000000       0.000007      -0.000001
  16       0.000002      -0.000005      -0.000008
---------------------------------------------------
 Number of fixed atoms: 0
 Gradient time:  CPU 983.69 s  wall 42.14 s
 ----------------------------------------------------------------
             Standard Nuclear Orientation (Angstroms)
    I     Atom           X                Y                Z
 ----------------------------------------------------------------
    1      O       4.9490899061    -0.0743925555     1.1007361448
    2      C       4.9078878412     0.9862520443     1.8804956768
    3      C       3.9054629496    -0.0469171405     0.0834562333
    4      O       5.7074141246     1.1632906182     2.8073684385
    5      O       3.9696731297     1.8414373659     1.6199803497
    6      C       3.0276551257     1.1787918898     0.2653789766
    7      Li      4.7631018428     2.7913140698     3.1817808793
    8      H       3.3207295773    -0.9545803911     0.2069505565
    9      H       4.4047702004    -0.0378006321    -0.8824213106
   10      H       2.1056677832     1.0804142130     0.8139624333
   11      H       3.1689219248     2.0386583293    -0.3677420483
   12      O       1.9638253141     0.4838664380    -1.3402365495
   13      C       0.9650737897    -0.2679753844    -1.0532407743
   14      O       0.1752897735    -0.7063773088    -1.9751199028
   15      O       0.7139970998    -0.6151561678     0.1738044683
   16      Li     -0.7064757984    -1.5251434368    -0.5777135511
 ----------------------------------------------------------------
 Nuclear Repulsion Energy =         595.48740421 hartrees
 There are       41 alpha and       41 beta electrons
 Discretize the solute cavity surface with Lebedev spheres
	Using 110 Lebedev grid points for each H atom
	Using 194 Lebedev grid points for other atoms
	Atomic van der Waals radii will be scaled by 1.20
 Remove points where switching function is < 1.0e-08
 Keep 1067 surface tesserae and discard 1701 interior tesserae
 Molecular Surface Area = 238.394 Angst**2
 Requested basis set is def2-TZVPPD
 There are 184 shells and 500 basis functions
 A cutoff of  1.0D-14 yielded  15155 shell pairs
 There are    112783 function pairs (    143683 Cartesian)
 Smallest overlap matrix eigenvalue = 3.51E-06
 Guess MOs from SCF MO coefficient file

 -----------------------------------------------------------------------
  General SCF calculation program by
  Eric Jon Sundstrom, Paul Horn, Yuezhi Mao, Dmitri Zuev, Alec White,
  David Stuck, Shaama M.S., Shane Yost, Joonho Lee, David Small,
  Daniel Levine, Susi Lehtola, Hugh Burton, Evgeny Epifanovsky,
  Bang C. Huynh
 -----------------------------------------------------------------------
 Exchange:     0.1670 Hartree-Fock + 1.0000 wB97X-V + LR-HF
 Correlation:  1.0000 wB97X-V
 Using SG-3 standard quadrature grid
 Nonlocal Correlation:  VV10 with C = 0.0100 and b = 6.00 and scale = 1.00000
 Grid used for NLC:  SG-1 standard quadrature
 
 Citation of the SMD model:
 Marenich, A.V.; Cramer, C.J.; Truhlar, D.G.
 J. Phys. Chem. B 2009, 113, 6378-6396.
 iSolventCode=           0
 Solvent: other                                                           
 
 vradii
            1           2           3           4           5           6
    1   2.2940000   1.8500000   1.8500000   2.2940000   2.2940000   1.8500000
            7           8           9          10          11          12
    1   2.1476001   1.2000000   1.2000000   1.2000000   1.2000000   2.2940000
           13          14          15          16
    1   1.8500000   2.2940000   2.2940000   2.1476001
 using 32 threads for integral computing
 -------------------------------------------------------
 OpenMP Integral computing Module                
 Release: version 1.0, May 2013, Q-Chem Inc. Pittsburgh 
 -------------------------------------------------------
 using 32 threads for integral computing
 -------------------------------------------------------
 OpenMP Integral computing Module                
 Release: version 1.0, May 2013, Q-Chem Inc. Pittsburgh 
 -------------------------------------------------------
 -------------------------------------------------------
 OpenMP BLAS3 based DFT computing Module                
 Release: version 1.0, May 2013, Q-Chem Inc. Pittsburgh 
 -------------------------------------------------------
 -------------------------------------------------------
 OpenMP BLAS3 based DFT computing Module                
 Release: version 1.0, May 2013, Q-Chem Inc. Pittsburgh 
 -------------------------------------------------------
 -------------------------------------------------------
 OpenMP BLAS3 based DFT computing Module                
 Release: version 1.0, May 2013, Q-Chem Inc. Pittsburgh 
 -------------------------------------------------------
 A restricted SCF calculation will be
 performed using Roothaan-Hall, DIIS
 SCF converges when DIIS error is below 1.0e-08
 ---------------------------------------
  Cycle       Energy         DIIS error
 ---------------------------------------
    1    -620.7822966961      2.24e-04  Roothaan Step
 ---------------------------------------
  Cycle       Energy         DIIS error
 ---------------------------------------
    1    -621.4344441766      2.73e-04  
    2    -621.4362089234      2.90e-04  
    3    -621.4379963041      5.71e-05  
    4    -621.4381000697      2.01e-05  
    5    -621.4381195237      9.84e-06  
    6    -621.4381236023      4.09e-06  
    7    -621.4381243298      1.57e-06  
    8    -621.4381244524      4.70e-07  
    9    -621.4381244653      2.44e-07  
[...]
 Frequency:       576.30                 692.92                 701.13
 Force Cnst:      1.5352                 2.0489                 3.9985
 Red. Mass:       7.8454                 7.2426                13.8056
 IR Active:          YES                    YES                    YES
 IR Intens:      144.891                 65.834                 13.542
 Raman Active:       YES                    YES                    YES
               X      Y      Z        X      Y      Z        X      Y      Z
 O          0.035 -0.044  0.002    0.167  0.017  0.162    0.053 -0.065  0.001
 C          0.068 -0.051  0.039   -0.038  0.022 -0.029   -0.060 -0.026 -0.051
 C         -0.060  0.078 -0.015    0.152  0.203  0.330    0.065  0.037  0.059
 O          0.013  0.108  0.090    0.073 -0.261 -0.128   -0.068 -0.006 -0.084
 O          0.046 -0.112 -0.022   -0.156 -0.104 -0.238   -0.023  0.001  0.012
 C         -0.104  0.060 -0.094   -0.195  0.100 -0.083    0.026  0.059 -0.010
 Li         0.033 -0.034  0.006   -0.029  0.116  0.064   -0.004  0.025  0.019
 H         -0.047  0.072 -0.024    0.211  0.156  0.239    0.001  0.075  0.013
 H         -0.046  0.087 -0.006    0.145  0.251  0.329    0.042  0.054  0.045
 H         -0.082  0.155 -0.043   -0.266  0.148 -0.184    0.091  0.228  0.109
 H         -0.061  0.061 -0.093   -0.183  0.035 -0.179    0.146  0.047 -0.012
 O         -0.160 -0.130  0.029   -0.014  0.012 -0.033    0.127  0.004  0.567
 C         -0.106 -0.084  0.033    0.007  0.002  0.013   -0.077 -0.031 -0.209
 O         -0.059 -0.030 -0.076    0.023  0.018  0.005   -0.378 -0.262 -0.051
 O         -0.020 -0.027  0.100   -0.018 -0.014  0.013    0.315  0.259 -0.228
 Li         0.681  0.513 -0.199   -0.003 -0.003  0.011   -0.018  0.011 -0.173
 TransDip   0.271  0.234 -0.144    0.030  0.183  0.182   -0.084 -0.008 -0.082

 Mode:                19                     20                     21
 Frequency:       754.87                 780.53                 807.98
 Force Cnst:      4.6530                 3.9440                 0.5765
 Red. Mass:      13.8594                10.9875                 1.4987
 IR Active:          YES                    YES                    YES
 IR Intens:       40.262                 22.173                 27.436
 Raman Active:       YES                    YES                    YES
               X      Y      Z        X      Y      Z        X      Y      Z
 O          0.040 -0.068 -0.014   -0.277  0.369  0.020   -0.032  0.013  0.004
 C         -0.015 -0.013 -0.053    0.086  0.100  0.219    0.111  0.089 -0.098
 C          0.023 -0.000  0.041   -0.113 -0.024 -0.170   -0.044 -0.037  0.023
 O         -0.069  0.020 -0.043    0.305 -0.082  0.219   -0.018 -0.024  0.044
 O          0.028  0.037  0.042   -0.109 -0.257 -0.311   -0.024 -0.028  0.012
 C         -0.029  0.010  0.007    0.086 -0.090 -0.037   -0.018 -0.036  0.039
 Li         0.001  0.001 -0.000    0.006  0.001  0.008    0.005  0.001 -0.005
 H          0.025 -0.010 -0.006   -0.077 -0.018  0.083    0.243 -0.261 -0.310
 H         -0.018  0.049  0.022    0.026 -0.319 -0.102    0.002  0.449  0.048
 H         -0.021  0.051  0.039    0.097 -0.355 -0.064   -0.160  0.455 -0.120
 H          0.058  0.091  0.142   -0.169 -0.055 -0.043    0.445 -0.250 -0.149
 O          0.298  0.218 -0.079    0.069  0.040  0.112    0.001  0.002  0.002
 C          0.192  0.135 -0.049    0.042  0.040 -0.035    0.005 -0.004  0.001
 O         -0.176 -0.188  0.478   -0.050 -0.047  0.070   -0.002  0.001  0.000
 O         -0.381 -0.228 -0.320   -0.016 -0.001 -0.081    0.001  0.002 -0.002
 Li         0.293  0.221 -0.084    0.015  0.013 -0.018   -0.003 -0.002  0.000
 TransDip   0.151  0.119 -0.067    0.107  0.062  0.086    0.142  0.075 -0.050

 Mode:                22                     23                     24
 Frequency:       823.58                 873.34                 952.09
 Force Cnst:      1.2946                 5.6272                 4.9704
 Red. Mass:       3.2395                12.5221                 9.3066
 IR Active:          YES                    YES                    YES
 IR Intens:       25.121                 32.182                 33.333
 Raman Active:       YES                    YES                    YES
               X      Y      Z        X      Y      Z        X      Y      Z
 O          0.053  0.062 -0.071    0.007  0.001 -0.001    0.336 -0.166  0.206
 C         -0.235 -0.183  0.245   -0.002 -0.002  0.002    0.008  0.098  0.078
 C         -0.036 -0.032  0.023   -0.007  0.001  0.008   -0.234 -0.199 -0.387
 O          0.071  0.053 -0.061    0.002 -0.001 -0.000    0.165 -0.090  0.094
 O          0.067  0.051 -0.071   -0.002  0.001 -0.003   -0.238  0.222 -0.060
 C         -0.022 -0.034  0.041   -0.003 -0.006  0.000   -0.103  0.149  0.022
 Li        -0.008 -0.009  0.007   -0.000  0.001  0.001   -0.006 -0.002 -0.008
 H          0.243 -0.248 -0.269   -0.008 -0.005 -0.053   -0.113 -0.256 -0.273
 H         -0.024  0.423  0.031    0.006  0.066  0.014   -0.054 -0.125 -0.288
 H         -0.134  0.431 -0.070   -0.008  0.038 -0.001   -0.170  0.155 -0.075
 H          0.380 -0.245 -0.154    0.025 -0.029 -0.022   -0.196  0.099 -0.081
 O          0.000  0.003 -0.006    0.132 -0.183 -0.024    0.006 -0.003  0.032
 C          0.008 -0.005  0.002   -0.523  0.736  0.100    0.010  0.004 -0.004
 O          0.000  0.003  0.004    0.135 -0.190 -0.023    0.005  0.002  0.019
 O         -0.002  0.001 -0.003    0.134 -0.191 -0.029    0.002  0.005 -0.023
 Li        -0.002 -0.002  0.001   -0.018  0.027  0.003    0.001  0.000 -0.001
 TransDip  -0.070 -0.078  0.122   -0.109  0.144  0.016   -0.123 -0.007 -0.138

 Mode:                25                     26                     27
 Frequency:      1076.19                1086.98                1131.83
 Force Cnst:      3.9343                 2.5227                 5.4270
 Red. Mass:       5.7656                 3.6239                 7.1903
 IR Active:          YES                    YES                    YES
 IR Intens:       15.809                  4.157                251.211
 Raman Active:       YES                    YES                    YES
               X      Y      Z        X      Y      Z        X      Y      Z
 O         -0.007  0.092  0.060    0.023 -0.127 -0.075    0.157  0.186  0.308
 C         -0.023 -0.000 -0.024    0.015  0.028  0.037   -0.058 -0.007 -0.063
 C          0.040 -0.149 -0.062   -0.075  0.179  0.071   -0.300  0.192 -0.162
 O         -0.038 -0.011 -0.045    0.060  0.007  0.065   -0.140 -0.057 -0.183
 O          0.068 -0.068 -0.004   -0.097  0.091 -0.035    0.156 -0.127  0.050
 C         -0.088  0.127  0.028    0.108 -0.176 -0.029    0.121 -0.196 -0.027
 Li        -0.003  0.008  0.003    0.004 -0.008 -0.003   -0.010  0.019  0.006
 H          0.242 -0.277 -0.006   -0.337  0.340 -0.036   -0.196  0.184  0.109
 H          0.237 -0.219  0.034   -0.342  0.324 -0.057   -0.147  0.214 -0.060
 H         -0.079  0.228  0.082    0.032 -0.402 -0.218    0.243 -0.229  0.136
 H          0.038  0.417  0.433    0.219 -0.276 -0.110    0.449 -0.150  0.143
 O          0.222  0.155 -0.064    0.107  0.089 -0.015    0.000  0.005 -0.012
 C          0.001  0.005 -0.016    0.005  0.005 -0.020   -0.030 -0.025  0.008
 O         -0.174 -0.094 -0.215   -0.082 -0.046 -0.097    0.006  0.003  0.009
 O         -0.045 -0.074  0.288   -0.026 -0.037  0.142   -0.000  0.004 -0.012
 Li        -0.000  0.000 -0.003    0.002  0.002 -0.003    0.009  0.007 -0.002
 TransDip  -0.056  0.009 -0.114    0.046  0.033  0.033   -0.365 -0.118 -0.332

 Mode:                28                     29                     30
 Frequency:      1166.62                1174.90                1238.14
 Force Cnst:      1.2388                 0.8709                 1.1999
 Red. Mass:       1.5449                 1.0708                 1.3285
 IR Active:          YES                    YES                    YES
 IR Intens:        0.290                  5.352                125.400
 Raman Active:       YES                    YES                    YES
               X      Y      Z        X      Y      Z        X      Y      Z
 O         -0.025 -0.022  0.019   -0.003 -0.006  0.007    0.010 -0.040 -0.023
 C         -0.004  0.002  0.005   -0.006  0.007  0.003   -0.054  0.102  0.026
 C          0.114  0.075 -0.103    0.025  0.024 -0.026    0.023 -0.015  0.025
 O          0.004  0.001  0.002    0.002 -0.001 -0.001    0.016 -0.009  0.009
 O          0.006  0.007 -0.013   -0.017 -0.017  0.013   -0.016 -0.030 -0.040
 C         -0.084 -0.055  0.085    0.001 -0.016  0.005    0.022 -0.027 -0.013
 Li         0.000  0.000 -0.000   -0.001 -0.000  0.000   -0.001 -0.003 -0.004
 H          0.008  0.217  0.428   -0.018  0.069  0.096   -0.176  0.091 -0.113
 H         -0.198 -0.395 -0.273   -0.066 -0.071 -0.074   -0.173  0.124 -0.077
 H         -0.303  0.291 -0.209    0.299  0.415  0.569    0.263  0.270  0.431
 H          0.450 -0.135  0.102   -0.271 -0.314 -0.456    0.265  0.370  0.579
 O         -0.004 -0.004 -0.000    0.019  0.015 -0.020   -0.009 -0.014 -0.026
 C         -0.003  0.001 -0.001    0.006  0.002  0.008   -0.028 -0.028  0.029
 O          0.004  0.002  0.004   -0.012 -0.006 -0.014    0.008  0.006  0.005
 O          0.001 -0.000 -0.003   -0.004 -0.004  0.014    0.006  0.009 -0.026
 Li        -0.000  0.000 -0.000   -0.001 -0.001  0.001    0.004  0.003  0.001
 TransDip   0.014  0.008 -0.006    0.024  0.064  0.029   -0.254  0.193  0.164

 Mode:                31                     32                     33
 Frequency:      1285.98                1352.62                1429.43
 Force Cnst:      1.0427                 1.6691                 5.5298
 Red. Mass:       1.0701                 1.5483                 4.5934
 IR Active:          YES                    YES                    YES
 IR Intens:        7.293                128.229                740.413
 Raman Active:       YES                    YES                    YES
               X      Y      Z        X      Y      Z        X      Y      Z
 O          0.022  0.019 -0.023   -0.011 -0.010 -0.020    0.003  0.010  0.004
 C          0.003  0.003 -0.004    0.049 -0.111 -0.038    0.012 -0.011  0.002
 C         -0.006 -0.005  0.000   -0.076  0.088 -0.004   -0.009  0.009 -0.000
 O         -0.001 -0.001  0.002    0.015  0.012  0.024   -0.006  0.000 -0.005
 O          0.001  0.001 -0.002   -0.070  0.061 -0.021    0.005  0.007  0.005
 C         -0.035 -0.031  0.035    0.001 -0.019 -0.012    0.059 -0.071  0.018
 Li         0.000  0.000  0.000    0.002  0.007  0.008    0.000 -0.001 -0.000
 H         -0.536  0.287 -0.308    0.472 -0.222  0.244   -0.104  0.063 -0.057
 H          0.579 -0.231  0.306    0.432 -0.265  0.263    0.018 -0.016  0.017
 H         -0.073  0.138  0.010    0.213 -0.045  0.320   -0.255  0.352 -0.444
 H          0.117 -0.099 -0.016    0.326  0.066  0.190   -0.529  0.071  0.087
 O         -0.000 -0.000 -0.000    0.005  0.004 -0.015    0.026  0.029 -0.042
 C          0.000 -0.001 -0.014   -0.019 -0.019  0.049    0.063 -0.019  0.471
 O          0.003  0.002  0.005   -0.003 -0.001 -0.010   -0.089 -0.044 -0.148
 O         -0.002 -0.001  0.006    0.005  0.006 -0.023    0.016  0.035 -0.172
 Li         0.000  0.000 -0.001    0.003  0.002  0.002    0.013  0.005  0.032
 TransDip  -0.074 -0.024 -0.037    0.079 -0.349  0.056    0.133 -0.024  0.861

 Mode:                34                     35                     36
 Frequency:      1451.91                1486.73                1502.93
 Force Cnst:      1.8168                 2.1083                12.8797
 Red. Mass:       1.4628                 1.6189                 9.6779
 IR Active:          YES                    YES                    YES
 IR Intens:      138.371                 87.737               1383.015
 Raman Active:       YES                    YES                    YES
               X      Y      Z        X      Y      Z        X      Y      Z
 O         -0.004  0.011  0.007   -0.015  0.056  0.030    0.016 -0.040 -0.016
 C          0.031 -0.062 -0.018    0.063 -0.135 -0.043   -0.016  0.073  0.041
 C         -0.021  0.016 -0.010    0.059 -0.105 -0.031   -0.056  0.052 -0.011
 O         -0.000  0.006  0.004    0.002  0.012  0.011   -0.011 -0.008 -0.017
 O         -0.024  0.030 -0.002   -0.042  0.041 -0.010    0.021 -0.010  0.012
 C          0.075 -0.105 -0.016   -0.039  0.021 -0.021   -0.010 -0.067 -0.064
 Li         0.001  0.003  0.003    0.003  0.007  0.008   -0.001 -0.007 -0.006
 H          0.029  0.020  0.205   -0.398  0.259  0.443    0.165 -0.068  0.149
 H          0.104  0.137  0.063    0.026  0.665 -0.030    0.179 -0.034  0.109
 H         -0.124  0.607 -0.246    0.082 -0.108  0.161    0.080  0.207  0.139
 H         -0.542  0.230  0.304    0.194  0.017  0.023    0.043  0.165  0.260
 O          0.000  0.002  0.010   -0.009 -0.006 -0.002   -0.249 -0.189  0.072
 C         -0.031 -0.007 -0.102    0.027  0.014  0.028    0.604  0.438 -0.062
 O          0.023  0.011  0.036   -0.010 -0.005 -0.013   -0.125 -0.074 -0.106
 O         -0.001 -0.005  0.036   -0.002  0.001 -0.008   -0.053 -0.049  0.079
 Li        -0.002 -0.000 -0.008   -0.000 -0.001  0.003   -0.045 -0.035  0.020
 TransDip  -0.054 -0.118 -0.354    0.214 -0.210  0.003    0.948  0.700  0.176

 Mode:                37                     38                     39
 Frequency:      1514.64                1700.05                3143.67
 Force Cnst:      2.2378                20.6899                 6.1643
 Red. Mass:       1.6556                12.1502                 1.0587
 IR Active:          YES                    YES                    YES
 IR Intens:      222.277               1121.572                 10.878
 Raman Active:       YES                    YES                    YES
               X      Y      Z        X      Y      Z        X      Y      Z
 O          0.001 -0.070 -0.053   -0.035 -0.049 -0.073   -0.001  0.000 -0.001
 C         -0.095  0.154  0.027    0.546  0.121  0.632    0.001  0.001  0.001
 C         -0.041 -0.014 -0.056   -0.018 -0.027 -0.040    0.002 -0.047 -0.049
 O          0.014 -0.011  0.005   -0.294 -0.049 -0.328   -0.000 -0.000 -0.000
 O          0.050 -0.050  0.010   -0.077  0.033 -0.050    0.000 -0.000  0.000
 C          0.011  0.017  0.023   -0.032  0.003 -0.025   -0.002  0.000  0.000
 Li        -0.004 -0.005 -0.008    0.029 -0.029  0.006    0.000  0.000  0.000
 H          0.099  0.009  0.688    0.011 -0.032  0.162    0.353  0.545 -0.086
 H          0.486  0.374  0.232    0.143  0.074  0.032   -0.352 -0.016  0.666
 H         -0.051 -0.071 -0.090    0.027 -0.006  0.067    0.004  0.000 -0.003
 H         -0.040 -0.069 -0.106    0.056  0.025  0.021    0.001  0.004 -0.003
 O          0.011  0.009 -0.003    0.019  0.012 -0.000   -0.000  0.000  0.000
 C         -0.026 -0.018  0.009   -0.037 -0.026  0.004    0.000  0.000 -0.000
 O          0.004  0.002  0.002    0.008  0.005  0.006   -0.000 -0.000 -0.000
 O          0.002  0.002 -0.006    0.005  0.004 -0.004   -0.000 -0.000  0.000
 Li         0.002  0.002 -0.000    0.001  0.001 -0.001   -0.000 -0.000 -0.000
 TransDip  -0.347  0.322  0.063    0.679  0.138  0.819    0.015 -0.062 -0.084

 Mode:                40                     41                     42
 Frequency:      3210.86                3225.84                3350.18
 Force Cnst:      6.7629                 6.4645                 7.4598
 Red. Mass:       1.1134                 1.0544                 1.1281
 IR Active:          YES                    YES                    YES
 IR Intens:        2.215                  6.760                  3.759
 Raman Active:       YES                    YES                    YES
               X      Y      Z        X      Y      Z        X      Y      Z
 O          0.001  0.001 -0.000   -0.000 -0.000 -0.000    0.000 -0.000 -0.000
 C          0.000 -0.000  0.000   -0.000  0.001  0.000   -0.000  0.000 -0.000
 C         -0.059 -0.054  0.056    0.006  0.001 -0.004   -0.003 -0.002  0.003
 O         -0.000 -0.000  0.000    0.000 -0.000  0.000   -0.000 -0.000  0.000
 O         -0.000 -0.000  0.000    0.001 -0.001 -0.000    0.001  0.001 -0.001
 C         -0.000  0.006 -0.004   -0.045  0.046 -0.003   -0.060 -0.053  0.067
 Li         0.000 -0.000 -0.000   -0.000 -0.000 -0.000    0.000 -0.000 -0.000
 H          0.397  0.632 -0.086   -0.028 -0.043  0.005    0.014  0.030 -0.003
 H          0.300  0.003 -0.573   -0.020 -0.001  0.037    0.020 -0.004 -0.034
 H          0.013 -0.001 -0.007    0.601  0.061 -0.366    0.600  0.056 -0.361
 H         -0.014 -0.067  0.050   -0.094 -0.560  0.413    0.094  0.559 -0.415
 O          0.000  0.000 -0.000   -0.000 -0.001  0.000    0.000  0.000 -0.001
 C          0.000  0.000  0.000    0.001  0.000 -0.001    0.000  0.000  0.000
 O         -0.000 -0.000 -0.000   -0.000 -0.000  0.000    0.000  0.000  0.000
 O         -0.000  0.000 -0.000   -0.000 -0.000  0.000   -0.000 -0.000  0.000
 Li        -0.000  0.000  0.000   -0.000 -0.000 -0.000   -0.000 -0.000 -0.000
 TransDip  -0.021 -0.024  0.036    0.042  0.072 -0.003    0.057  0.025 -0.003

 STANDARD THERMODYNAMIC QUANTITIES AT   298.15 K  AND     1.00 ATM

   This Molecule has  1 Imaginary Frequencies
   Zero point vibrational energy:       59.675 kcal/mol

   Atom    1 Element O  Has Mass   15.99491
   Atom    2 Element C  Has Mass   12.00000
   Atom    3 Element C  Has Mass   12.00000
   Atom    4 Element O  Has Mass   15.99491
   Atom    5 Element O  Has Mass   15.99491
   Atom    6 Element C  Has Mass   12.00000
   Atom    7 Element Li Has Mass    7.01600
   Atom    8 Element H  Has Mass    1.00783
   Atom    9 Element H  Has Mass    1.00783
   Atom   10 Element H  Has Mass    1.00783
   Atom   11 Element H  Has Mass    1.00783
   Atom   12 Element O  Has Mass   15.99491
   Atom   13 Element C  Has Mass   12.00000
   Atom   14 Element O  Has Mass   15.99491
   Atom   15 Element O  Has Mass   15.99491
   Atom   16 Element Li Has Mass    7.01600
   Molecular Mass:   162.032780 amu
   Principal axes and moments of inertia in amu*Bohr^2:
                             1           2           3
    Eigenvalues --      551.97648  3974.11756  4029.82152
          X               0.76473     0.61823     0.18161
          Y               0.31652    -0.60592     0.72985
          Z               0.56126    -0.50065    -0.65904
   Rotational Symmetry Number is   1
   The Molecule is an Asymmetric Top
   Translational Enthalpy:        0.889 kcal/mol
   Rotational Enthalpy:           0.889 kcal/mol
   Vibrational Enthalpy:         65.171 kcal/mol
   gas constant (RT):             0.592 kcal/mol
   Translational Entropy:        41.156  cal/mol.K
   Rotational Entropy:           30.559  cal/mol.K
   Vibrational Entropy:          37.970  cal/mol.K

   Total Enthalpy:               67.541 kcal/mol
   Total Entropy:               109.685  cal/mol.K
Archival summary:
1\1\n0055.lr6\FREQ\ProcedureUnspecified\BasisUnspecified\64i24\ewcspott\FriMay1520:20:522020FriMay1520:20:522020\0\\#,FREQ,ProcedureUnspecified,BasisUnspecified,\\0,1\O\C,1,1.29594\O,2,1.2368,1,121.614\O,2,1.31627,1,115.773,3,179.875,0\C,4,1.45764,2,112.111,1,0.307526,0\H,5,1.08675,4,106.903,2,-122.691,0\H,5,1.08734,4,106.937,2,118.596,0\C,5,1.51855,4,110.177,2,-2.63579,0\H,8,1.07711,5,119.876,4,101.266,0\H,8,1.07735,5,118.816,4,-96.244,0\Li,3,1.91895,2,87.1079,1,0.736223,0\O,8,2.0476,5,86.1268,4,-179.088,0\C,12,1.28263,8,115.343,5,92.0786,0\O,13,1.29067,12,121.049,8,176.143,0\O,13,1.2997,12,121.215,8,-3.90745,0\Li,14,1.84408,13,84.3847,12,-179.988,0\\\@

 Total job time:  20392.10s(wall), 517295.75s(cpu) 
 Fri May 15 20:20:52 2020

        *************************************************************
        *                                                           *
        *  Thank you very much for using Q-Chem.  Have a nice day.  *
        *                                                           *
        *************************************************************


