
Running Job 1 of 1 mol.qin
qchem mol.qin_260084.0 /tmp/scratch/ 0
/clusterfs/mp/software/qchem/exe/qcprog.exe_s mol.qin_260084.0 /tmp/scratch/
                  Welcome to Q-Chem
     A Quantum Leap Into The Future Of Chemistry


 Q-Chem 5.2, Q-Chem, Inc., Pleasanton, CA (2019)

 Yihan Shao,  Zhengting Gan,  E. Epifanovsky,  A. T. B. Gilbert,  M. Wormit,  
 J. Kussmann,  A. W. Lange,  A. Behn,  Jia Deng,  Xintian Feng,  D. Ghosh,  
 M. Goldey,  P. R. Horn,  L. D. Jacobson,  I. Kaliman,  T. Kus,  A. Landau,  
 Jie Liu,  E. I. Proynov,  R. M. Richard,  R. P. Steele,  E. J. Sundstrom,  
 H. L. Woodcock III,  P. M. Zimmerman,  D. Zuev,  B. Alam,  B. Albrecht,  
 E. Alguire,  S. A. Baeppler,  D. Barton,  Z. Benda,  Y. A. Bernard,  
 E. J. Berquist,  K. B. Bravaya,  H. Burton,  K. Carter-Fenk,  D. Casanova,  
 Chun-Min Chang,  Yunqing Chen,  A. Chien,  K. D. Closser,  M. P. Coons,  
 S. Coriani,  S. Dasgupta,  A. L. Dempwolff,  M. Diedenhofen,  Hainam Do,  
 R. G. Edgar,  Po-Tung Fang,  S. Faraji,  S. Fatehi,  Qingguo Feng,  
 J. Fosso-Tande,  J. Gayvert,  Qinghui Ge,  A. Ghysels,  G. Gidofalvi,  
 J. Gomes,  J. Gonthier,  A. Gunina,  D. Hait,  M. W. D. Hanson-Heine,  
 P. H. P. Harbach,  A. W. Hauser,  M. F. Herbst,  J. E. Herr,  
 E. G. Hohenstein,  Z. C. Holden,  Kerwin Hui,  B. C. Huynh,  T.-C. Jagau,  
 Hyunjun Ji,  B. Kaduk,  K. Khistyaev,  Jaehoon Kim,  P. Klunzinger,  K. Koh,  
 D. Kosenkov,  L. Koulias,  T. Kowalczyk,  C. M. Krauter,  A. Kunitsa,  
 Ka Un Lao,  A. Laurent,  K. V. Lawler,  Joonho Lee,  D. Lefrancois,  
 S. Lehtola,  D. S. Levine,  Yi-Pei Li,  You-Sheng Lin,  Fenglai Liu,  
 Kuan-Yu Liu,  E. Livshits,  M. Loipersberger,  A. Luenser,  P. Manohar,  
 E. Mansoor,  S. F. Manzer,  Shan-Ping Mao,  Yuezhi Mao,  N. Mardirossian,  
 A. V. Marenich,  T. Markovich,  L. A. Martinez-Martinez,  S. A. Maurer,  
 N. J. Mayhall,  S. C. McKenzie,  J.-M. Mewes,  P. Morgante,  A. F. Morrison,  
 J. W. Mullinax,  K. Nanda,  T. S. Nguyen-Beck,  R. Olivares-Amaya,  
 J. A. Parkhill,  S. K. Paul,  Zheng Pei,  T. M. Perrine,  F. Plasser,  
 P. Pokhilko,  S. Prager,  A. Prociuk,  E. Ramos,  B. Rana,  D. R. Rehn,  
 F. Rob,  M. Scheurer,  M. Schneider,  N. Sergueev,  S. M. Sharada,  
 S. Sharma,  D. W. Small,  T. Stauch,  C. J. Stein,  T. Stein,  Yu-Chuan Su,  
 S. P. Veccham,  A. J. W. Thom,  A. Tkatchenko,  T. Tsuchimochi,  
 N. M. Tubman,  L. Vogt,  M. L. Vidal,  O. Vydrov,  M. A. Watson,  J. Wenzel,  
 M. de Wergifosse,  T. A. Wesolowski,  A. White,  J. Witte,  A. Yamada,  
 Jun Yang,  K. Yao,  S. Yeganeh,  S. R. Yost,  Zhi-Qiang You,  A. Zech,  
 Igor Ying Zhang,  Xing Zhang,  Yan Zhao,  Ying Zhu,  B. R. Brooks,  
 G. K. L. Chan,  C. J. Cramer,  M. S. Gordon,  W. J. Hehre,  A. Klamt,  
 M. W. Schmidt,  C. D. Sherrill,  D. G. Truhlar,  A. Aspuru-Guzik,  R. Baer,  
 A. T. Bell,  N. A. Besley,  Jeng-Da Chai,  A. E. DePrince, III,  
 R. A. DiStasio Jr.,  A. Dreuw,  B. D. Dunietz,  T. R. Furlani,  
 Chao-Ping Hsu,  Yousung Jung,  Jing Kong,  D. S. Lambrecht,  WanZhen Liang,  
 C. Ochsenfeld,  V. A. Rassolov,  L. V. Slipchenko,  J. E. Subotnik,  
 T. Van Voorhis,  J. M. Herbert,  A. I. Krylov,  P. M. W. Gill,  M. Head-Gordon

 Contributors to earlier versions of Q-Chem not listed above: 
 R. D. Adamson,  B. Austin,  J. Baker,  G. J. O. Beran,  K. Brandhorst,  
 S. T. Brown,  E. F. C. Byrd,  A. K. Chakraborty,  C.-L. Cheng,  
 Siu Hung Chien,  D. M. Chipman,  D. L. Crittenden,  H. Dachsel,  
 R. J. Doerksen,  A. D. Dutoi,  L. Fusti-Molnar,  W. A. Goddard III,  
 A. Golubeva-Zadorozhnaya,  S. R. Gwaltney,  G. Hawkins,  A. Heyden,  
 S. Hirata,  G. Kedziora,  F. J. Keil,  C. Kelley,  Jihan Kim,  R. A. King,  
 R. Z. Khaliullin,  P. P. Korambath,  W. Kurlancheek,  A. M. Lee,  M. S. Lee,  
 S. V. Levchenko,  Ching Yeh Lin,  D. Liotard,  R. C. Lochan,  I. Lotan,  
 P. E. Maslen,  N. Nair,  D. P. O'Neill,  D. Neuhauser,  E. Neuscamman,  
 C. M. Oana,  R. Olson,  B. Peters,  R. Peverati,  P. A. Pieniazek,  
 Y. M. Rhee,  J. Ritchie,  M. A. Rohrdanz,  E. Rosta,  N. J. Russ,  
 H. F. Schaefer III,  N. E. Schultz,  N. Shenvi,  A. C. Simmonett,  A. Sodt,  
 D. Stuck,  K. S. Thanthiriwatte,  V. Vanovschi,  Tao Wang,  A. Warshel,  
 C. F. Williams,  Q. Wu,  X. Xu,  W. Zhang

 Please cite Q-Chem as follows:
 Y. Shao et al., Mol. Phys. 113, 184-215 (2015)
 DOI: 10.1080/00268976.2014.952696

 Q-Chem 5.2.2 for Intel X86 EM64T Linux

 Parts of Q-Chem use Armadillo 8.300.2 (Tropical Shenanigans).
 http://arma.sourceforge.net/

 Q-Chem begins on Sun Aug 16 07:22:52 2020  

Host: 
0

     Scratch files written to /tmp/scratch//
 Nov2519 |scratch|qcdevops|jenkins|workspace|build_RNUM 6829   
Processing $rem in /clusterfs/mp/software/qchem/config/preferences:
	 MEM_TOTAL  96000 
NAlpha2: 86
NElect   85
Mult     2
Symmetry turned off for PCM/SM12/SMD calculation

Checking the input file for inconsistencies... 	...done.

--------------------------------------------------------------
User input:
--------------------------------------------------------------
$molecule
0 2
O     -4.0730070176      0.1143995258     -0.0270347663
C     -2.8320332920     -0.0299588807     -0.5468396598
O     -2.1162730264      1.0313198515     -0.6926704648
O     -2.2666773785     -1.2351020197     -0.2908166221
C     -1.3947048742     -1.3206830156      1.1811634617
O      0.8744740906     -1.4261541492      1.9007023503
C      2.2021340335     -1.4326781589      1.6930525938
C      0.0314453458     -1.2877672213      0.7301081886
O      2.6691620907     -1.3264416766      0.5249799995
O      2.9304762220     -1.5499983865      2.7163517265
Li     -3.6262931223      1.9108524299     -0.0813347916
Li      4.3281157725     -1.4595548495      1.4436582944
H     -1.6971023060     -2.2668643487      1.6281134349
H     -1.7032774959     -0.4609044654      1.7735298761
H      0.2410363044     -2.1103759795      0.0425390907
H      0.2576173675     -0.3440445531      0.2316516869
Li     -4.0707427142     -1.6863941025      0.2138656013
$end

$rem
job_type = freq
basis = def2-tzvppd
max_scf_cycles = 200
gen_scfman = true
xc_grid = 3
scf_algorithm = diis
resp_charges = true
symmetry = false
sym_ignore = true
method = wb97xv
solvent_method = smd
ideriv = 1
thresh = 14
$end

$smx
solvent other
$end
--------------------------------------------------------------
 ----------------------------------------------------------------
             Standard Nuclear Orientation (Angstroms)
    I     Atom           X                Y                Z
 ----------------------------------------------------------------
    1      O      -4.0730070176     0.1143995258    -0.0270347663
    2      C      -2.8320332920    -0.0299588807    -0.5468396598
    3      O      -2.1162730264     1.0313198515    -0.6926704648
    4      O      -2.2666773785    -1.2351020197    -0.2908166221
    5      C      -1.3947048742    -1.3206830156     1.1811634617
    6      O       0.8744740906    -1.4261541492     1.9007023503
    7      C       2.2021340335    -1.4326781589     1.6930525938
    8      C       0.0314453458    -1.2877672213     0.7301081886
    9      O       2.6691620907    -1.3264416766     0.5249799995
   10      O       2.9304762220    -1.5499983865     2.7163517265
   11      Li     -3.6262931223     1.9108524299    -0.0813347916
   12      Li      4.3281157725    -1.4595548495     1.4436582944
   13      H      -1.6971023060    -2.2668643487     1.6281134349
   14      H      -1.7032774959    -0.4609044654     1.7735298761
   15      H       0.2410363044    -2.1103759795     0.0425390907
   16      H       0.2576173675    -0.3440445531     0.2316516869
   17      Li     -4.0707427142    -1.6863941025     0.2138656013
 ----------------------------------------------------------------
 Nuclear Repulsion Energy =         607.44379185 hartrees
 There are       43 alpha and       42 beta electrons
 Requested basis set is def2-TZVPPD
 There are 194 shells and 522 basis functions

 Total QAlloc Memory Limit  96000 MB
 Mega-Array Size       188 MB
 MEM_STATIC part       192 MB
 
 Citation of the SMD model:
 Marenich, A.V.; Cramer, C.J.; Truhlar, D.G.
 J. Phys. Chem. B 2009, 113, 6378-6396.
 iSolventCode=           0
 Solvent: other                                                           
 
 vradii
            1           2           3           4           5           6
    1   2.2940000   1.8500000   2.2940000   2.2940000   1.8500000   2.2940000
            7           8           9          10          11          12
    1   1.8500000   1.8500000   2.2940000   2.2940000   2.1476001   2.1476001
           13          14          15          16          17
    1   1.2000000   1.2000000   1.2000000   1.2000000   2.1476001
 Changing PCM_VDW_RADII to SMD_RADIUS
 Discretize the solute cavity surface with Lebedev spheres
	Using 110 Lebedev grid points for each H atom
	Using 194 Lebedev grid points for other atoms
	Atomic van der Waals radii will be scaled by 1.20
 Remove points where switching function is < 1.0e-08
 Keep 1216 surface tesserae and discard 1746 interior tesserae
 Molecular Surface Area = 260.373 Angst**2
 A cutoff of  1.0D-14 yielded  16471 shell pairs
 There are    120017 function pairs (    151791 Cartesian)
 Smallest overlap matrix eigenvalue = 3.75E-06
 Guess from superposition of atomic densities
 Warning:  Energy on first SCF cycle will be non-variational
 SAD guess density has 85.000000 electrons

 -----------------------------------------------------------------------
  General SCF calculation program by
  Eric Jon Sundstrom, Paul Horn, Yuezhi Mao, Dmitri Zuev, Alec White,
  David Stuck, Shaama M.S., Shane Yost, Joonho Lee, David Small,
  Daniel Levine, Susi Lehtola, Hugh Burton, Evgeny Epifanovsky,
  Bang C. Huynh
 -----------------------------------------------------------------------
 Exchange:     0.1670 Hartree-Fock + 1.0000 wB97X-V + LR-HF
 Correlation:  1.0000 wB97X-V
 Using SG-3 standard quadrature grid
 Nonlocal Correlation:  VV10 with C = 0.0100 and b = 6.00 and scale = 1.00000
 Grid used for NLC:  SG-1 standard quadrature
 
 Citation of the SMD model:
 Marenich, A.V.; Cramer, C.J.; Truhlar, D.G.
 J. Phys. Chem. B 2009, 113, 6378-6396.
 iSolventCode=           0
 Solvent: other                                                           
 
 vradii
            1           2           3           4           5           6
    1   2.2940000   1.8500000   2.2940000   2.2940000   1.8500000   2.2940000
            7           8           9          10          11          12
    1   1.8500000   1.8500000   2.2940000   2.2940000   2.1476001   2.1476001
           13          14          15          16          17
    1   1.2000000   1.2000000   1.2000000   1.2000000   2.1476001
 using 40 threads for integral computing
 -------------------------------------------------------
 OpenMP Integral computing Module                
 Release: version 1.0, May 2013, Q-Chem Inc. Pittsburgh 
 -------------------------------------------------------
 using 40 threads for integral computing
 -------------------------------------------------------
 OpenMP Integral computing Module                
 Release: version 1.0, May 2013, Q-Chem Inc. Pittsburgh 
 -------------------------------------------------------
 -------------------------------------------------------
 OpenMP BLAS3 based DFT computing Module                
 Release: version 1.0, May 2013, Q-Chem Inc. Pittsburgh 
 -------------------------------------------------------
 -------------------------------------------------------
 OpenMP BLAS3 based DFT computing Module                
 Release: version 1.0, May 2013, Q-Chem Inc. Pittsburgh 
 -------------------------------------------------------
 -------------------------------------------------------
 OpenMP BLAS3 based DFT computing Module                
 Release: version 1.0, May 2013, Q-Chem Inc. Pittsburgh 
 -------------------------------------------------------
 A unrestricted SCF calculation will be
 performed using DIIS
 SCF converges when DIIS error is below 1.0e-08
 ---------------------------------------
  Cycle       Energy         DIIS error
 ---------------------------------------
    1    -630.3582192514      9.62e-03  
    2    -628.5638408032      1.97e-03  
    3    -628.5601833840      2.17e-03  
    4    -628.9708099760      1.37e-04  
    5    -628.9722434949      1.00e-04  
    6    -628.9732891507      2.16e-05  
    7    -628.9733987498      9.05e-06  
    8    -628.9734251702      5.06e-06  
    9    -628.9734350596      2.47e-06  
   10    -628.9734374599      9.29e-07  
   11    -628.9734378802      3.91e-07  
   12    -628.9734379478      1.87e-07  
   13    -628.9734379674      7.01e-08  
   14    -628.9734379725      3.80e-08  
   15    -628.9734379746      2.59e-08  
   16    -628.9734379754      1.54e-08  
   17    -628.9734379757      6.27e-09  Convergence criterion met
 ---------------------------------------
 SCF time:   CPU 7082.91s  wall 309.00s 
<S^2> =          0.763399965
(3)  G-ENP(liq) elect-nuc-pol free energy of system     -628.973437976 a.u.
(4)  G-CDS(liq) cavity-dispersion-solvent structure 
     free energy                                               -2.9385 kcal/mol
(6)  G-S(liq) free energy of system                     -628.978120764 a.u.
 SCF   energy in the final basis set =     -628.9734379757
 Total energy in the final basis set =     -628.9781207643
 
 --------------------------------------------------------------
 
                    Orbital Energies (a.u.)
 --------------------------------------------------------------
 
 Alpha MOs
 -- Occupied --
-19.2361 -19.2095 -19.1734 -19.1690 -19.1532 -19.1431 -10.4097 -10.3597
-10.3068 -10.2882  -2.0937  -2.0820  -2.0676  -1.2348  -1.1806  -1.1359
 -1.0880  -1.0781  -1.0442  -0.8851  -0.7493  -0.6747  -0.6367  -0.6043
 -0.5910  -0.5768  -0.5630  -0.5541  -0.5417  -0.5267  -0.5038  -0.4673
 -0.4542  -0.4383  -0.4206  -0.4105  -0.3966  -0.3875  -0.3768  -0.3702
 -0.3659  -0.3517  -0.1695
 -- Virtual --
  0.0283   0.0301   0.0307   0.0419   0.0448   0.0463   0.0496   0.0587
  0.0600   0.0637   0.0679   0.0808   0.1022   0.1067   0.1218   0.1227
  0.1270   0.1316   0.1352   0.1380   0.1407   0.1425   0.1474   0.1530
  0.1555   0.1572   0.1597   0.1638   0.1694   0.1721   0.1737   0.1771
  0.1803   0.1834   0.1946   0.2050   0.2086   0.2127   0.2207   0.2257
  0.2342   0.2374   0.2515   0.2583   0.2680   0.2721   0.2737   0.2832
  0.2844   0.2957   0.2988   0.3126   0.3158   0.3179   0.3234   0.3344
  0.3379   0.3437   0.3471   0.3531   0.3568   0.3587   0.3622   0.3751
  0.3774   0.3790   0.3852   0.3885   0.3978   0.3999   0.4076   0.4108
  0.4158   0.4188   0.4242   0.4278   0.4306   0.4370   0.4383   0.4440
  0.4475   0.4533   0.4602   0.4662   0.4756   0.4772   0.4822   0.4868
  0.4896   0.4967   0.5048   0.5053   0.5094   0.5113   0.5161   0.5183
  0.5226   0.5369   0.5445   0.5469   0.5515   0.5557   0.5673   0.5706
  0.5718   0.5806   0.5867   0.5928   0.5968   0.6028   0.6037   0.6159
  0.6246   0.6289   0.6317   0.6372   0.6431   0.6446   0.6557   0.6565
  0.6753   0.6781   0.6845   0.6899   0.6966   0.7053   0.7088   0.7142
  0.7207   0.7218   0.7285   0.7365   0.7487   0.7489   0.7598   0.7649
  0.7716   0.7758   0.7837   0.7944   0.8106   0.8152   0.8220   0.8290
  0.8318   0.8394   0.8421   0.8490   0.8536   0.8617   0.8767   0.8793
  0.8838   0.8967   0.9026   0.9174   0.9200   0.9330   0.9359   0.9381
  0.9473   0.9572   0.9729   0.9808   0.9892   0.9904   1.0095   1.0136
  1.0235   1.0431   1.0451   1.0523   1.0620   1.0663   1.0753   1.0880
  1.0912   1.1047   1.1062   1.1283   1.1348   1.1409   1.1431   1.1774
  1.1894   1.2015   1.2061   1.2132   1.2433   1.2564   1.2587   1.2836
  1.2976   1.3024   1.3173   1.3225   1.3368   1.3464   1.3550   1.3578
  1.3697   1.3892   1.3995   1.4050   1.4131   1.4333   1.4487   1.4521
  1.4751   1.4770   1.4954   1.5078   1.5164   1.5575   1.5654   1.5740
  1.5918   1.6077   1.6433   1.6585   1.6759   1.7350   1.7524   1.7608
  1.7765   1.8099   1.8431   1.8637   1.8737   1.9073   1.9229   1.9363
  1.9451   1.9515   1.9723   1.9815   1.9900   1.9952   2.0150   2.0300
  2.0494   2.0613   2.0717   2.0889   2.0973   2.1218   2.1323   2.1520
  2.1758   2.1934   2.2329   2.2468   2.2622   2.2723   2.2916   2.3136
  2.3524   2.3691   2.3804   2.3908   2.3989   2.4146   2.4509   2.4556
  2.4606   2.4724   2.4912   2.5053   2.5667   2.5877   2.6406   2.6488
  2.6884   2.7177   2.7447   2.8045   2.8369   2.8874   2.9311   2.9577
  2.9722   2.9795   2.9956   3.0180   3.0318   3.0480   3.0601   3.0817
  3.1227   3.1435   3.1675   3.1968   3.2154   3.2241   3.2443   3.2556
  3.2790   3.2858   3.2995   3.3200   3.3246   3.3311   3.3419   3.3598
  3.3698   3.3797   3.3897   3.4089   3.4220   3.4439   3.4623   3.4716
  3.4884   3.5050   3.5132   3.5293   3.5423   3.5557   3.5697   3.5942
  3.5987   3.6170   3.6248   3.6342   3.6348   3.6493   3.6623   3.6641
  3.6891   3.6977   3.7303   3.7503   3.7799   3.7946   3.8356   3.8424
  3.8568   3.9104   3.9350   3.9687   3.9939   4.0171   4.0369   4.0814
  4.1130   4.1314   4.1438   4.1694   4.2068   4.2798   4.3001   4.3307
  4.3726   4.4124   4.4464   4.4520   4.5117   4.5229   4.6007   4.6638
  4.7161   4.7271   4.7486   4.7752   4.8241   4.8313   4.8706   4.8983
  4.9386   4.9798   4.9821   5.0541   5.0955   5.1465   5.2058   5.2518
  5.2586   5.2776   5.2960   5.3103   5.3142   5.3242   5.3370   5.3484
  5.3501   5.3769   5.3954   5.4306   5.4444   5.4721   5.4953   5.5239
  5.5411   5.5655   5.5724   5.6094   5.6268   5.6391   5.6594   5.6749
  5.6969   5.7173   5.7306   5.7666   5.7988   5.8114   5.8261   5.8540
  5.9058   5.9463   5.9913   6.0668   6.0821   6.1131   6.1448   6.1613
  6.1703   6.1856   6.2454   6.2609   6.2832   6.2952   6.2966   6.3048
  6.3191   6.3435   6.3475   6.3822   6.4305   6.4485   6.4546   6.4885
  6.5545   6.6173   6.6543   6.6737   6.7087   6.7128   6.7218   6.7559
  6.7621   6.8143   6.8462   6.8631   6.8796   6.9252   6.9512   6.9685
  6.9887   6.9956   7.0250   7.1069   7.1571   7.1840   7.2708   7.2789
  7.3282   7.3800   7.4093   7.4148   7.4429   7.4762   7.5202   7.5245
  7.6684   7.7240  14.8268  14.9514  15.0946  23.4370  23.5608  23.7086
 23.9285  44.1984  44.2949  44.3425  44.3751  44.4556  44.7101
 
 Beta MOs
 -- Occupied --
-19.2355 -19.2091 -19.1733 -19.1690 -19.1513 -19.1408 -10.4096 -10.3538
-10.3070 -10.2824  -2.0937  -2.0819  -2.0674  -1.2342  -1.1740  -1.1350
 -1.0879  -1.0740  -1.0383  -0.8775  -0.7397  -0.6716  -0.6267  -0.6012
 -0.5904  -0.5752  -0.5582  -0.5438  -0.5362  -0.5170  -0.4998  -0.4638
 -0.4510  -0.4289  -0.4184  -0.4077  -0.3960  -0.3846  -0.3767  -0.3699
 -0.3508  -0.3493
 -- Virtual --
  0.0293   0.0308   0.0334   0.0444   0.0461   0.0470   0.0507   0.0604
  0.0610   0.0643   0.0665   0.0831   0.0885   0.1062   0.1140   0.1236
  0.1260   0.1282   0.1337   0.1391   0.1411   0.1435   0.1485   0.1510
  0.1574   0.1579   0.1601   0.1634   0.1676   0.1727   0.1755   0.1771
  0.1778   0.1853   0.1963   0.1980   0.2068   0.2109   0.2173   0.2232
  0.2288   0.2362   0.2399   0.2536   0.2625   0.2699   0.2742   0.2755
  0.2849   0.2861   0.2987   0.3008   0.3140   0.3181   0.3197   0.3248
  0.3361   0.3392   0.3459   0.3487   0.3551   0.3592   0.3600   0.3635
  0.3761   0.3800   0.3802   0.3870   0.3898   0.3989   0.4029   0.4096
  0.4119   0.4165   0.4204   0.4264   0.4290   0.4322   0.4381   0.4402
  0.4455   0.4499   0.4563   0.4608   0.4679   0.4758   0.4782   0.4827
  0.4886   0.4905   0.4974   0.5058   0.5065   0.5121   0.5136   0.5173
  0.5207   0.5239   0.5380   0.5467   0.5476   0.5530   0.5569   0.5683
  0.5722   0.5731   0.5812   0.5873   0.5932   0.5975   0.6040   0.6075
  0.6172   0.6255   0.6300   0.6327   0.6379   0.6438   0.6459   0.6561
  0.6573   0.6759   0.6788   0.6851   0.6910   0.6980   0.7067   0.7099
  0.7151   0.7219   0.7224   0.7297   0.7377   0.7498   0.7500   0.7609
  0.7662   0.7725   0.7771   0.7848   0.7956   0.8113   0.8166   0.8224
  0.8294   0.8338   0.8401   0.8433   0.8496   0.8546   0.8624   0.8783
  0.8808   0.8852   0.8970   0.9037   0.9185   0.9210   0.9347   0.9370
  0.9398   0.9490   0.9577   0.9735   0.9819   0.9895   0.9915   1.0098
  1.0149   1.0244   1.0443   1.0458   1.0538   1.0627   1.0673   1.0763
  1.0884   1.0917   1.1063   1.1077   1.1295   1.1364   1.1427   1.1454
  1.1782   1.1914   1.2037   1.2065   1.2139   1.2442   1.2579   1.2592
  1.2867   1.3003   1.3033   1.3192   1.3244   1.3377   1.3484   1.3564
  1.3602   1.3715   1.3908   1.4006   1.4059   1.4138   1.4347   1.4533
  1.4561   1.4773   1.4809   1.4978   1.5085   1.5184   1.5593   1.5676
  1.5777   1.5939   1.6110   1.6454   1.6612   1.6785   1.7368   1.7546
  1.7623   1.7777   1.8106   1.8445   1.8645   1.8743   1.9085   1.9265
  1.9370   1.9477   1.9608   1.9751   1.9856   1.9938   1.9988   2.0171
  2.0350   2.0536   2.0660   2.0732   2.0927   2.0994   2.1255   2.1345
  2.1531   2.1768   2.1971   2.2381   2.2535   2.2642   2.2735   2.2951
  2.3148   2.3534   2.3708   2.3831   2.3933   2.4031   2.4192   2.4532
  2.4568   2.4664   2.4748   2.4932   2.5097   2.5685   2.5904   2.6416
  2.6519   2.6928   2.7208   2.7449   2.8083   2.8420   2.8921   2.9317
  2.9603   2.9736   2.9829   2.9977   3.0199   3.0351   3.0521   3.0633
  3.0841   3.1295   3.1476   3.1795   3.1993   3.2208   3.2285   3.2492
  3.2617   3.2862   3.2885   3.3076   3.3229   3.3273   3.3343   3.3479
  3.3611   3.3715   3.3905   3.3964   3.4136   3.4244   3.4482   3.4668
  3.4753   3.4911   3.5103   3.5200   3.5368   3.5493   3.5655   3.5747
  3.5978   3.6040   3.6209   3.6286   3.6360   3.6380   3.6538   3.6669
  3.6680   3.6913   3.7036   3.7348   3.7562   3.7854   3.8015   3.8386
  3.8479   3.8601   3.9150   3.9387   3.9718   3.9975   4.0208   4.0399
  4.0842   4.1175   4.1354   4.1479   4.1705   4.2074   4.2813   4.3037
  4.3321   4.3743   4.4130   4.4471   4.4540   4.5117   4.5257   4.6035
  4.6650   4.7171   4.7312   4.7504   4.7768   4.8275   4.8325   4.8726
  4.9020   4.9407   4.9826   4.9849   5.0547   5.0982   5.1507   5.2072
  5.2544   5.2616   5.2782   5.2993   5.3115   5.3160   5.3262   5.3410
  5.3512   5.3529   5.3812   5.3961   5.4314   5.4471   5.4738   5.4960
  5.5247   5.5424   5.5677   5.5737   5.6107   5.6278   5.6401   5.6629
  5.6757   5.6980   5.7203   5.7319   5.7679   5.8011   5.8122   5.8292
  5.8565   5.9096   5.9464   5.9925   6.0702   6.0822   6.1137   6.1449
  6.1625   6.1713   6.1886   6.2497   6.2610   6.2836   6.2958   6.2973
  6.3058   6.3193   6.3442   6.3477   6.3846   6.4345   6.4490   6.4580
  6.4924   6.5547   6.6177   6.6606   6.6745   6.7091   6.7161   6.7220
  6.7628   6.7691   6.8146   6.8475   6.8654   6.8821   6.9261   6.9512
  6.9735   6.9901   6.9961   7.0308   7.1081   7.1577   7.1868   7.2716
  7.2798   7.3302   7.3833   7.4113   7.4154   7.4431   7.4760   7.5200
  7.5243   7.6691   7.7254  14.8268  14.9515  15.0947  23.4442  23.5663
 23.7099  23.9286  44.1984  44.2971  44.3449  44.3754  44.4559  44.7107
 --------------------------------------------------------------
 
          Ground-State Mulliken Net Atomic Charges

     Atom                 Charge (a.u.)    Spin (a.u.)
  --------------------------------------------------------
      1 O                    -1.008199       0.025783
      2 C                     0.648792       0.629564
      3 O                    -0.848127       0.051606
      4 O                    -0.473416      -0.213398
      5 C                    -0.099765       0.462070
      6 O                    -0.167432      -0.007953
      7 C                     0.655188       0.008247
      8 C                     0.104136      -0.024580
      9 O                    -0.798287      -0.000807
     10 O                    -0.792655       0.002106
     11 Li                    0.814468       0.010642
     12 Li                    0.874561       0.000203
     13 H                     0.102259       0.003018
     14 H                     0.064317       0.008446
     15 H                     0.082042       0.004133
     16 H                     0.027894       0.008692
     17 Li                    0.814224       0.032226
  --------------------------------------------------------
  Sum of atomic charges =     0.000000
  Sum of spin   charges =     1.000000

  Building new vdw surfaces
         Merz-Kollman RESP Net Atomic Charges

     Atom                 Charge (a.u.)
  ----------------------------------------
      1 O                    -0.881137
      2 C                     0.233598
      3 O                    -0.682539
      4 O                    -0.546259
      5 C                    -0.273398
      6 O                    -0.531899
      7 C                     0.933862
      8 C                     0.404641
      9 O                    -0.824277
     10 O                    -0.824277
     11 Li                    0.865829
     12 Li                    0.857614
     13 H                     0.144879
     14 H                     0.144879
     15 H                     0.051493
     16 H                     0.051493
     17 Li                    0.875496
  ----------------------------------------
  Sum of atomic charges =     0.000000

  Related Dipole Moment =     2.6635 (X -2.3012 Y -0.4836 Z  1.2509)

 -----------------------------------------------------------------
                    Cartesian Multipole Moments
 -----------------------------------------------------------------
    Charge (ESU x 10^10)
                 0.0000
    Dipole Moment (Debye)
         X      -2.2679      Y      -0.4772      Z       1.3738
       Tot       2.6941
    Quadrupole Moments (Debye-Ang)
        XX       7.4260     XY      -2.7012     YY     -43.8159
        XZ      -8.0731     YZ       2.9601     ZZ     -82.0710
    Octopole Moments (Debye-Ang^2)
       XXX     165.6624    XXY     -22.4934    XYY     -45.7711
       YYY     159.4591    XXZ      22.3118    XYZ       8.7567
       YYZ     -43.1471    XZZ      11.2802    YZZ      75.5575
       ZZZ    -185.7224
    Hexadecapole Moments (Debye-Ang^3)
      XXXX    -741.4544   XXXY       4.7851   XXYY     -69.4663
      XYYY     157.1618   YYYY    -540.3833   XXXZ    -118.0806
      XXYZ     -10.7185   XYYZ    -126.5841   YYYZ     235.8580
      XXZZ    -576.1753   XYZZ     117.0182   YYZZ    -266.5419
      XZZZ    -446.7891   YZZZ     327.9900   ZZZZ    -889.9969
 -----------------------------------------------------------------
 Calculating analytic gradient of the SCF energy
 Gradient of CDS energy
            1           2           3           4           5           6
    1  -0.0001175   0.0002465   0.0001043   0.0000643  -0.0002523  -0.0008448
    2   0.0000193  -0.0002833   0.0004371  -0.0003276  -0.0003061   0.0000195
    3   0.0004833  -0.0021377   0.0008175   0.0009779   0.0007367  -0.0003419
            7           8           9          10          11          12
    1   0.0000604   0.0003307   0.0001036   0.0004882   0.0000713   0.0000336
    2  -0.0000249   0.0000633  -0.0000010  -0.0000094  -0.0000116   0.0000014
    3   0.0002975  -0.0002208  -0.0000733  -0.0000520   0.0001228  -0.0000019
           13          14          15          16          17
    1  -0.0000318  -0.0001141   0.0000444  -0.0000703  -0.0001165
    2   0.0001271   0.0001383   0.0001420   0.0000022   0.0000138
    3  -0.0001900  -0.0004250  -0.0000058  -0.0000706   0.0000833
 Gradient of SCF Energy
            1           2           3           4           5           6
    1   0.0044063   0.0001741   0.0031779   0.0013133   0.0063213   0.0032717
    2   0.0001617  -0.0002711  -0.0020910   0.0025525   0.0037929   0.0000572
    3  -0.0038821   0.0031598  -0.0049683  -0.0020313   0.0006367   0.0021169
            7           8           9          10          11          12
    1   0.0031856  -0.0031713  -0.0062978  -0.0070214  -0.0049478   0.0084958
    2  -0.0010467   0.0036845   0.0010446   0.0005485   0.0048100  -0.0005239
    3  -0.0012955  -0.0093869   0.0004813   0.0005607   0.0032378  -0.0011312
           13          14          15          16          17
    1  -0.0015474   0.0001904  -0.0016736  -0.0015289  -0.0043483
    2  -0.0020164  -0.0010259   0.0042719  -0.0087847  -0.0051642
    3   0.0004447  -0.0010190   0.0038258   0.0052372   0.0040135
 Max gradient component =       9.387E-03
 RMS gradient           =       3.774E-03
 Computing fast CPCM-SWIG gradient
 Updating gradient with PCM contributions...
 -- total gradient after adding PCM contribution --
---------------------------------------------------
  Atom         X              Y              Z     
---------------------------------------------------
   1      -0.000006       0.000011       0.000001
   2       0.000011      -0.000004      -0.000002
   3       0.000003       0.000003      -0.000003
   4      -0.000002      -0.000017       0.000003
   5      -0.000013       0.000002       0.000011
   6      -0.000000      -0.000001      -0.000004
   7       0.000001       0.000004      -0.000002
   8      -0.000001      -0.000000      -0.000003
   9       0.000002      -0.000003      -0.000002
  10      -0.000000       0.000006       0.000000
  11      -0.000008      -0.000002      -0.000003
  12       0.000003      -0.000003      -0.000008
  13       0.000003       0.000002      -0.000000
  14       0.000006       0.000007       0.000000
  15      -0.000004      -0.000001       0.000002
  16      -0.000001      -0.000001      -0.000001
  17       0.000007      -0.000002       0.000011
---------------------------------------------------
 Number of fixed atoms: 0
 Gradient time:  CPU 1259.67 s  wall 62.12 s
 ######################################################
 ######################################################
 # Starting finite difference calculation for IDERIV  #
 Finite diff step size:  1.88973e-03 a.u.
 ----------------------------------------------------------------
             Standard Nuclear Orientation (Angstroms)
    I     Atom           X                Y                Z
 ----------------------------------------------------------------
    1      O      -4.0720070176     0.1143995258    -0.0270347663
    2      C      -2.8320332920    -0.0299588807    -0.5468396598
    3      O      -2.1162730264     1.0313198515    -0.6926704648
    4      O      -2.2666773785    -1.2351020197    -0.2908166221
    5      C      -1.3947048742    -1.3206830156     1.1811634617
    6      O       0.8744740906    -1.4261541492     1.9007023503
    7      C       2.2021340335    -1.4326781589     1.6930525938
    8      C       0.0314453458    -1.2877672213     0.7301081886
    9      O       2.6691620907    -1.3264416766     0.5249799995
   10      O       2.9304762220    -1.5499983865     2.7163517265
   11      Li     -3.6262931223     1.9108524299    -0.0813347916
   12      Li      4.3281157725    -1.4595548495     1.4436582944
   13      H      -1.6971023060    -2.2668643487     1.6281134349
   14      H      -1.7032774959    -0.4609044654     1.7735298761
   15      H       0.2410363044    -2.1103759795     0.0425390907
   16      H       0.2576173675    -0.3440445531     0.2316516869
   17      Li     -4.0707427142    -1.6863941025     0.2138656013
 ----------------------------------------------------------------
 Nuclear Repulsion Energy =         607.47537900 hartrees
 There are       43 alpha and       42 beta electrons
 Discretize the solute cavity surface with Lebedev spheres
	Using 110 Lebedev grid points for each H atom
	Using 194 Lebedev grid points for other atoms
	Atomic van der Waals radii will be scaled by 1.20
 Remove points where switching function is < 1.0e-08
 Keep 1216 surface tesserae and discard 1746 interior tesserae
 Molecular Surface Area = 260.364 Angst**2
 Requested basis set is def2-TZVPPD
 There are 194 shells and 522 basis functions
 A cutoff of  1.0D-14 yielded  16471 shell pairs
 There are    120017 function pairs (    151791 Cartesian)
 Smallest overlap matrix eigenvalue = 3.75E-06
 Guess MOs from SCF MO coefficient file

 -----------------------------------------------------------------------
  General SCF calculation program by
  Eric Jon Sundstrom, Paul Horn, Yuezhi Mao, Dmitri Zuev, Alec White,
  David Stuck, Shaama M.S., Shane Yost, Joonho Lee, David Small,
  Daniel Levine, Susi Lehtola, Hugh Burton, Evgeny Epifanovsky,
  Bang C. Huynh
 -----------------------------------------------------------------------
 Exchange:     0.1670 Hartree-Fock + 1.0000 wB97X-V + LR-HF
 Correlation:  1.0000 wB97X-V
 Using SG-3 standard quadrature grid
 Nonlocal Correlation:  VV10 with C = 0.0100 and b = 6.00 and scale = 1.00000
 Grid used for NLC:  SG-1 standard quadrature
 
 Citation of the SMD model:
 Marenich, A.V.; Cramer, C.J.; Truhlar, D.G.
 J. Phys. Chem. B 2009, 113, 6378-6396.
 iSolventCode=           0
 Solvent: other                                                           
 
 vradii
            1           2           3           4           5           6
    1   2.2940000   1.8500000   2.2940000   2.2940000   1.8500000   2.2940000
            7           8           9          10          11          12
    1   1.8500000   1.8500000   2.2940000   2.2940000   2.1476001   2.1476001
           13          14          15          16          17
    1   1.2000000   1.2000000   1.2000000   1.2000000   2.1476001
 using 40 threads for integral computing
 -------------------------------------------------------
 OpenMP Integral computing Module                
 Release: version 1.0, May 2013, Q-Chem Inc. Pittsburgh 
 -------------------------------------------------------
 using 40 threads for integral computing
 -------------------------------------------------------
 OpenMP Integral computing Module                
 Release: version 1.0, May 2013, Q-Chem Inc. Pittsburgh 
 -------------------------------------------------------
 -------------------------------------------------------
 OpenMP BLAS3 based DFT computing Module                
 Release: version 1.0, May 2013, Q-Chem Inc. Pittsburgh 
 -------------------------------------------------------
 -------------------------------------------------------
 OpenMP BLAS3 based DFT computing Module                
 Release: version 1.0, May 2013, Q-Chem Inc. Pittsburgh 
 -------------------------------------------------------
 -------------------------------------------------------
 OpenMP BLAS3 based DFT computing Module                
 Release: version 1.0, May 2013, Q-Chem Inc. Pittsburgh 
 -------------------------------------------------------
 A unrestricted SCF calculation will be
 performed using Roothaan-Hall, DIIS
 SCF converges when DIIS error is below 1.0e-08
 ---------------------------------------
  Cycle       Energy         DIIS error
 ---------------------------------------
    1    -627.5659946685      1.07e-04  Roothaan Step
 ---------------------------------------
  Cycle       Energy         DIIS error
 ---------------------------------------
    1    -628.9701411204      1.22e-04  
    2    -628.9725637224      8.82e-05  
    3    -628.9732830295      3.25e-05  
    4    -628.9734048498      8.88e-06  
    5    -628.9734282722      3.91e-06  
    6    -628.9734338114      1.52e-06  
    7    -628.9734360059      8.69e-07  
    8    -628.9734367211      5.33e-07  
    9    -628.9734370856      2.41e-07  
   10    -628.9734371545      1.56e-07  
   11    -628.9734371714      6.64e-08  
   12    -628.9734371761      4.83e-08  
   13    -628.9734371782      2.82e-08  
   14    -628.9734371790      1.57e-08  
   15    -628.9734371794      7.54e-09  Convergence criterion met
 ---------------------------------------
 SCF time:   CPU 6919.99s  wall 302.00s 
<S^2> =          0.763394147
(3)  G-ENP(liq) elect-nuc-pol free energy of system     -628.973437179 a.u.
(4)  G-CDS(liq) cavity-dispersion-solvent structure 
     free energy                                               -2.9386 kcal/mol
(6)  G-S(liq) free energy of system                     -628.978120183 a.u.
 SCF   energy in the final basis set =     -628.9734371794
 Total energy in the final basis set =     -628.9781201825
 
 --------------------------------------------------------------
 
                    Orbital Energies (a.u.)
 --------------------------------------------------------------
 
 Alpha MOs
 -- Occupied --
-19.2361 -19.2094 -19.1733 -19.1690 -19.1532 -19.1430 -10.4097 -10.3596
-10.3067 -10.2882  -2.0937  -2.0821  -2.0676  -1.2348  -1.1808  -1.1358
 -1.0880  -1.0781  -1.0444  -0.8851  -0.7493  -0.6747  -0.6367  -0.6042
 -0.5910  -0.5768  -0.5630  -0.5542  -0.5417  -0.5267  -0.5038  -0.4673
 -0.4542  -0.4383  -0.4206  -0.4105  -0.3966  -0.3875  -0.3767  -0.3702
 -0.3659  -0.3517  -0.1695
 -- Virtual --
  0.0283   0.0301   0.0307   0.0419   0.0448   0.0463   0.0496   0.0587
  0.0600   0.0637   0.0679   0.0808   0.1022   0.1067   0.1219   0.1226
  0.1270   0.1316   0.1352   0.1380   0.1407   0.1425   0.1474   0.1530
  0.1555   0.1572   0.1597   0.1638   0.1694   0.1721   0.1738   0.1771
  0.1804   0.1834   0.1946   0.2050   0.2086   0.2127   0.2207   0.2257
  0.2342   0.2374   0.2515   0.2583   0.2680   0.2721   0.2737   0.2832
  0.2844   0.2957   0.2989   0.3126   0.3158   0.3179   0.3234   0.3344
  0.3379   0.3437   0.3471   0.3531   0.3568   0.3588   0.3622   0.3751
  0.3775   0.3790   0.3853   0.3885   0.3978   0.3999   0.4076   0.4108
  0.4158   0.4188   0.4242   0.4278   0.4306   0.4371   0.4383   0.4440
  0.4475   0.4533   0.4602   0.4662   0.4756   0.4772   0.4822   0.4868
  0.4896   0.4967   0.5048   0.5053   0.5095   0.5113   0.5162   0.5184
  0.5226   0.5369   0.5445   0.5469   0.5515   0.5557   0.5673   0.5706
  0.5718   0.5806   0.5867   0.5928   0.5968   0.6028   0.6038   0.6159
  0.6246   0.6289   0.6317   0.6372   0.6431   0.6446   0.6557   0.6565
  0.6754   0.6781   0.6845   0.6899   0.6967   0.7053   0.7088   0.7142
  0.7207   0.7219   0.7286   0.7365   0.7487   0.7489   0.7599   0.7650
  0.7716   0.7758   0.7837   0.7944   0.8107   0.8152   0.8220   0.8290
  0.8319   0.8394   0.8421   0.8490   0.8536   0.8617   0.8767   0.8793
  0.8838   0.8967   0.9027   0.9175   0.9200   0.9330   0.9359   0.9381
  0.9474   0.9572   0.9729   0.9808   0.9892   0.9903   1.0095   1.0136
  1.0235   1.0431   1.0451   1.0523   1.0620   1.0664   1.0753   1.0880
  1.0912   1.1047   1.1062   1.1283   1.1348   1.1409   1.1431   1.1774
  1.1894   1.2015   1.2061   1.2132   1.2433   1.2564   1.2587   1.2837
  1.2977   1.3025   1.3173   1.3225   1.3368   1.3464   1.3551   1.3578
  1.3697   1.3892   1.3995   1.4050   1.4131   1.4333   1.4488   1.4522
  1.4751   1.4770   1.4954   1.5078   1.5165   1.5575   1.5654   1.5741
  1.5919   1.6078   1.6434   1.6585   1.6759   1.7350   1.7524   1.7608
  1.7765   1.8100   1.8431   1.8638   1.8737   1.9073   1.9229   1.9363
  1.9451   1.9516   1.9723   1.9815   1.9901   1.9952   2.0151   2.0302
  2.0494   2.0614   2.0718   2.0890   2.0974   2.1218   2.1323   2.1520
  2.1759   2.1934   2.2330   2.2470   2.2623   2.2724   2.2917   2.3136
  2.3525   2.3693   2.3807   2.3910   2.3991   2.4149   2.4509   2.4555
  2.4602   2.4724   2.4913   2.5054   2.5667   2.5878   2.6407   2.6487
  2.6885   2.7179   2.7447   2.8045   2.8370   2.8875   2.9311   2.9577
  2.9722   2.9796   2.9957   3.0181   3.0319   3.0482   3.0601   3.0818
  3.1228   3.1437   3.1677   3.1969   3.2157   3.2242   3.2445   3.2556
  3.2790   3.2858   3.2995   3.3200   3.3246   3.3311   3.3420   3.3598
  3.3698   3.3799   3.3898   3.4089   3.4220   3.4440   3.4623   3.4717
  3.4884   3.5050   3.5132   3.5295   3.5428   3.5560   3.5698   3.5943
  3.5987   3.6170   3.6248   3.6343   3.6348   3.6493   3.6624   3.6642
  3.6892   3.6978   3.7305   3.7505   3.7801   3.7948   3.8356   3.8424
  3.8569   3.9105   3.9351   3.9688   3.9939   4.0172   4.0370   4.0816
  4.1131   4.1315   4.1442   4.1694   4.2068   4.2798   4.3002   4.3307
  4.3727   4.4125   4.4464   4.4520   4.5117   4.5229   4.6008   4.6638
  4.7161   4.7270   4.7486   4.7752   4.8241   4.8313   4.8707   4.8983
  4.9386   4.9799   4.9821   5.0541   5.0955   5.1465   5.2058   5.2519
  5.2587   5.2776   5.2959   5.3103   5.3142   5.3242   5.3371   5.3484
  5.3501   5.3770   5.3954   5.4306   5.4445   5.4722   5.4954   5.5240
  5.5412   5.5657   5.5725   5.6095   5.6268   5.6392   5.6600   5.6750
  5.6969   5.7174   5.7307   5.7669   5.7992   5.8115   5.8262   5.8542
  5.9062   5.9463   5.9913   6.0676   6.0821   6.1131   6.1448   6.1615
  6.1703   6.1862   6.2456   6.2609   6.2832   6.2952   6.2966   6.3048
  6.3191   6.3435   6.3475   6.3823   6.4311   6.4486   6.4552   6.4887
  6.5545   6.6173   6.6544   6.6737   6.7087   6.7131   6.7218   6.7561
  6.7623   6.8143   6.8463   6.8632   6.8798   6.9252   6.9512   6.9690
  6.9888   6.9957   7.0251   7.1069   7.1571   7.1848   7.2710   7.2790
  7.3286   7.3799   7.4097   7.4149   7.4429   7.4762   7.5203   7.5246
  7.6685   7.7240  14.8268  14.9514  15.0948  23.4395  23.5608  23.7086
 23.9285  44.1984  44.2953  44.3425  44.3752  44.4557  44.7101
 
 Beta MOs
 -- Occupied --
-19.2354 -19.2090 -19.1733 -19.1690 -19.1513 -19.1407 -10.4096 -10.3537
-10.3070 -10.2823  -2.0937  -2.0820  -2.0674  -1.2342  -1.1741  -1.1350
 -1.0879  -1.0740  -1.0385  -0.8775  -0.7397  -0.6716  -0.6267  -0.6012
 -0.5904  -0.5752  -0.5582  -0.5439  -0.5363  -0.5170  -0.4998  -0.4637
 -0.4510  -0.4289  -0.4184  -0.4077  -0.3960  -0.3847  -0.3766  -0.3699
 -0.3508  -0.3493
 -- Virtual --
  0.0293   0.0308   0.0334   0.0444   0.0461   0.0470   0.0507   0.0604
  0.0610   0.0643   0.0665   0.0831   0.0885   0.1062   0.1140   0.1236
  0.1260   0.1282   0.1337   0.1391   0.1411   0.1435   0.1485   0.1510
  0.1574   0.1579   0.1601   0.1634   0.1676   0.1727   0.1755   0.1771
  0.1778   0.1853   0.1963   0.1981   0.2068   0.2109   0.2173   0.2232
  0.2288   0.2362   0.2399   0.2536   0.2625   0.2699   0.2742   0.2755
  0.2849   0.2861   0.2987   0.3008   0.3140   0.3181   0.3197   0.3248
  0.3361   0.3392   0.3459   0.3487   0.3551   0.3592   0.3600   0.3635
  0.3761   0.3800   0.3802   0.3870   0.3898   0.3989   0.4029   0.4096
  0.4119   0.4165   0.4204   0.4264   0.4290   0.4322   0.4381   0.4402
  0.4455   0.4499   0.4563   0.4609   0.4679   0.4758   0.4783   0.4827
  0.4887   0.4905   0.4974   0.5058   0.5066   0.5122   0.5137   0.5173
  0.5208   0.5239   0.5380   0.5468   0.5476   0.5530   0.5569   0.5683
  0.5722   0.5731   0.5812   0.5873   0.5932   0.5976   0.6040   0.6075
  0.6172   0.6255   0.6300   0.6327   0.6379   0.6438   0.6459   0.6561
  0.6573   0.6759   0.6788   0.6851   0.6910   0.6981   0.7067   0.7099
  0.7151   0.7220   0.7224   0.7297   0.7377   0.7499   0.7500   0.7609
  0.7662   0.7726   0.7771   0.7848   0.7956   0.8114   0.8166   0.8224
  0.8294   0.8338   0.8401   0.8433   0.8496   0.8546   0.8624   0.8783
  0.8809   0.8852   0.8970   0.9037   0.9187   0.9210   0.9347   0.9370
  0.9398   0.9491   0.9577   0.9736   0.9819   0.9895   0.9915   1.0099
  1.0149   1.0245   1.0443   1.0458   1.0538   1.0627   1.0673   1.0762
  1.0884   1.0917   1.1063   1.1077   1.1295   1.1364   1.1427   1.1454
  1.1782   1.1914   1.2037   1.2065   1.2139   1.2442   1.2579   1.2593
  1.2868   1.3004   1.3033   1.3192   1.3245   1.3377   1.3484   1.3564
  1.3603   1.3716   1.3908   1.4006   1.4059   1.4138   1.4347   1.4534
  1.4562   1.4773   1.4809   1.4978   1.5085   1.5185   1.5593   1.5676
  1.5778   1.5940   1.6111   1.6455   1.6613   1.6786   1.7368   1.7546
  1.7623   1.7777   1.8106   1.8445   1.8645   1.8744   1.9085   1.9265
  1.9370   1.9477   1.9608   1.9751   1.9857   1.9939   1.9989   2.0171
  2.0352   2.0536   2.0661   2.0732   2.0927   2.0994   2.1255   2.1344
  2.1531   2.1769   2.1971   2.2382   2.2537   2.2642   2.2736   2.2951
  2.3148   2.3534   2.3709   2.3833   2.3936   2.4032   2.4195   2.4532
  2.4568   2.4659   2.4748   2.4933   2.5098   2.5685   2.5904   2.6416
  2.6519   2.6929   2.7210   2.7449   2.8084   2.8421   2.8922   2.9317
  2.9604   2.9736   2.9830   2.9978   3.0200   3.0352   3.0522   3.0634
  3.0842   3.1296   3.1477   3.1796   3.1994   3.2211   3.2286   3.2494
  3.2618   3.2861   3.2885   3.3076   3.3230   3.3273   3.3344   3.3480
  3.3611   3.3715   3.3906   3.3965   3.4137   3.4245   3.4482   3.4668
  3.4753   3.4911   3.5104   3.5200   3.5370   3.5499   3.5658   3.5748
  3.5978   3.6040   3.6210   3.6287   3.6361   3.6380   3.6538   3.6670
  3.6681   3.6914   3.7037   3.7349   3.7565   3.7855   3.8017   3.8387
  3.8480   3.8601   3.9150   3.9388   3.9718   3.9976   4.0208   4.0400
  4.0844   4.1175   4.1354   4.1483   4.1706   4.2074   4.2813   4.3037
  4.3321   4.3743   4.4130   4.4471   4.4540   4.5117   4.5257   4.6035
  4.6650   4.7171   4.7311   4.7504   4.7769   4.8275   4.8325   4.8727
  4.9020   4.9407   4.9827   4.9850   5.0547   5.0982   5.1508   5.2072
  5.2544   5.2616   5.2782   5.2992   5.3115   5.3160   5.3262   5.3411
  5.3512   5.3529   5.3812   5.3961   5.4314   5.4472   5.4739   5.4961
  5.5247   5.5425   5.5679   5.5738   5.6108   5.6279   5.6403   5.6635
  5.6758   5.6980   5.7203   5.7320   5.7682   5.8014   5.8123   5.8293
  5.8568   5.9101   5.9465   5.9926   6.0710   6.0822   6.1137   6.1449
  6.1627   6.1714   6.1893   6.2499   6.2610   6.2836   6.2958   6.2974
  6.3058   6.3193   6.3442   6.3477   6.3847   6.4352   6.4490   6.4587
  6.4926   6.5547   6.6177   6.6607   6.6746   6.7091   6.7165   6.7220
  6.7630   6.7693   6.8147   6.8476   6.8655   6.8822   6.9261   6.9513
  6.9740   6.9902   6.9962   7.0310   7.1082   7.1577   7.1876   7.2718
  7.2799   7.3307   7.3832   7.4116   7.4155   7.4431   7.4759   7.5201
  7.5243   7.6691   7.7255  14.8268  14.9516  15.0949  23.4467  23.5663
 23.7099  23.9286  44.1984  44.2975  44.3449  44.3755  44.4560  44.7108
 --------------------------------------------------------------
 
          Ground-State Mulliken Net Atomic Charges

     Atom                 Charge (a.u.)    Spin (a.u.)
  --------------------------------------------------------
      1 O                    -1.007956       0.025782
      2 C                     0.649369       0.629364
      3 O                    -0.848380       0.051420
      4 O                    -0.473482      -0.213456
      5 C                    -0.100077       0.462407
      6 O                    -0.167380      -0.007985
      7 C                     0.655160       0.008270
      8 C                     0.104131      -0.024644
      9 O                    -0.798291      -0.000808
     10 O                    -0.792667       0.002108
     11 Li                    0.814388       0.010698
     12 Li                    0.874561       0.000204
     13 H                     0.102309       0.003002
     14 H                     0.064284       0.008478
     15 H                     0.082013       0.004141
     16 H                     0.027852       0.008703
     17 Li                    0.814165       0.032317
  --------------------------------------------------------
  Sum of atomic charges =    -0.000000
  Sum of spin   charges =     1.000000

  Building new vdw surfaces
         Merz-Kollman RESP Net Atomic Charges

     Atom                 Charge (a.u.)
  ----------------------------------------
      1 O                    -0.880962
      2 C                     0.234375
      3 O                    -0.682958
      4 O                    -0.546834
      5 C                    -0.273229
      6 O                    -0.532049
      7 C                     0.933977
      8 C                     0.404726
      9 O                    -0.824316
     10 O                    -0.824316
     11 Li                    0.865925
     12 Li                    0.857606
     13 H                     0.144760
     14 H                     0.144760
     15 H                     0.051473
     16 H                     0.051473
     17 Li                    0.875589
  ----------------------------------------
  Sum of atomic charges =     0.000000

  Related Dipole Moment =     2.6718 (X -2.3122 Y -0.4811 Z  1.2493)

 -----------------------------------------------------------------
                    Cartesian Multipole Moments
 -----------------------------------------------------------------
    Charge (ESU x 10^10)
                -0.0000
    Dipole Moment (Debye)
         X      -2.2792      Y      -0.4747      Z       1.3723
       Tot       2.7024
    Quadrupole Moments (Debye-Ang)
        XX       7.4944     XY      -2.7056     YY     -43.8230
        XZ      -8.0711     YZ       2.9624     ZZ     -82.0761
    Octopole Moments (Debye-Ang^2)
       XXX     165.2530    XXY     -22.4734    XYY     -45.7727
       YYY     159.4742    XXZ      22.2989    XYZ       8.7567
       YYZ     -43.1499    XZZ      11.2698    YZZ      75.5658
       ZZZ    -185.7309
    Hexadecapole Moments (Debye-Ang^3)
      XXXX    -739.1617   XXXY       4.7184   XXYY     -69.4117
      XYYY     157.1319   YYYY    -540.4430   XXXZ    -118.0447
      XXYZ     -10.7170   XYYZ    -126.5866   YYYZ     235.8667
      XXZZ    -576.0972   XYZZ     117.0083   YYZZ    -266.5666
      XZZZ    -446.7906   YZZZ     328.0039   ZZZZ    -890.0504
 -----------------------------------------------------------------
 Calculating analytic gradient of the SCF energy
 Gradient of CDS energy
            1           2           3           4           5           6
    1  -0.0001096   0.0002393   0.0001043   0.0000643  -0.0002523  -0.0008448
    2   0.0000185  -0.0002826   0.0004371  -0.0003276  -0.0003061   0.0000195
    3   0.0004807  -0.0021353   0.0008175   0.0009779   0.0007367  -0.0003419
            7           8           9          10          11          12
    1   0.0000604   0.0003307   0.0001036   0.0004882   0.0000710   0.0000336
    2  -0.0000249   0.0000633  -0.0000010  -0.0000094  -0.0000119   0.0000014
    3   0.0002975  -0.0002208  -0.0000733  -0.0000520   0.0001229  -0.0000019
           13          14          15          16          17
    1  -0.0000318  -0.0001142   0.0000444  -0.0000703  -0.0001167
    2   0.0001271   0.0001383   0.0001420   0.0000022   0.0000141
    3  -0.0001900  -0.0004250  -0.0000058  -0.0000706   0.0000834
 Gradient of SCF Energy
            1           2           3           4           5           6
    1   0.0050531  -0.0002754   0.0030913   0.0012804   0.0063013   0.0032599
    2   0.0001275  -0.0002385  -0.0021375   0.0026100   0.0037933   0.0000576
    3  -0.0040604   0.0032209  -0.0048950  -0.0019249   0.0006001   0.0021139
            7           8           9          10          11          12
    1   0.0031960  -0.0031579  -0.0063038  -0.0070278  -0.0049786   0.0084981
    2  -0.0010471   0.0036882   0.0010445   0.0005490   0.0047791  -0.0005240
    3  -0.0012971  -0.0093969   0.0004842   0.0005567   0.0032386  -0.0011309
           13          14          15          16          17
    1  -0.0015462   0.0001909  -0.0016774  -0.0015320  -0.0043719
    2  -0.0020071  -0.0010345   0.0042801  -0.0087950  -0.0051454
    3   0.0004381  -0.0010284   0.0038319   0.0052420   0.0040071
 Max gradient component =       9.397E-03
 RMS gradient           =       3.793E-03
 Computing fast CPCM-SWIG gradient
 Updating gradient with PCM contributions...
 -- total gradient after adding PCM contribution --
---------------------------------------------------
  Atom         X              Y              Z     
---------------------------------------------------
   1       0.000622      -0.000018      -0.000181
   2      -0.000425       0.000022       0.000053
   3      -0.000093      -0.000041       0.000073
   4      -0.000038       0.000043       0.000113
   5      -0.000041       0.000004      -0.000039
   6      -0.000015      -0.000000      -0.000007
   7       0.000010       0.000004      -0.000003
   8       0.000019       0.000000      -0.000002
   9      -0.000002      -0.000003      -0.000001
  10      -0.000005       0.000006      -0.000002
  11      -0.000028      -0.000031      -0.000001
  12       0.000004      -0.000003      -0.000008
  13       0.000002       0.000002      -0.000002
  14       0.000005       0.000007      -0.000002
  15      -0.000006      -0.000001       0.000002
  16      -0.000001      -0.000001      -0.000001
  17      -0.000006       0.000011       0.000007
---------------------------------------------------
 Number of fixed atoms: 0
 Gradient time:  CPU 1267.61 s  wall 61.75 s
 ----------------------------------------------------------------
             Standard Nuclear Orientation (Angstroms)
    I     Atom           X                Y                Z
 ----------------------------------------------------------------
    1      O      -4.0740070176     0.1143995258    -0.0270347663
    2      C      -2.8320332920    -0.0299588807    -0.5468396598
    3      O      -2.1162730264     1.0313198515    -0.6926704648
    4      O      -2.2666773785    -1.2351020197    -0.2908166221
    5      C      -1.3947048742    -1.3206830156     1.1811634617
    6      O       0.8744740906    -1.4261541492     1.9007023503
    7      C       2.2021340335    -1.4326781589     1.6930525938
    8      C       0.0314453458    -1.2877672213     0.7301081886
    9      O       2.6691620907    -1.3264416766     0.5249799995
   10      O       2.9304762220    -1.5499983865     2.7163517265
   11      Li     -3.6262931223     1.9108524299    -0.0813347916
   12      Li      4.3281157725    -1.4595548495     1.4436582944
   13      H      -1.6971023060    -2.2668643487     1.6281134349
   14      H      -1.7032774959    -0.4609044654     1.7735298761
   15      H       0.2410363044    -2.1103759795     0.0425390907
   16      H       0.2576173675    -0.3440445531     0.2316516869
   17      Li     -4.0707427142    -1.6863941025     0.2138656013
 ----------------------------------------------------------------
 Nuclear Repulsion Energy =         607.41222507 hartrees
 There are       43 alpha and       42 beta electrons
 Discretize the solute cavity surface with Lebedev spheres
	Using 110 Lebedev grid points for each H atom
	Using 194 Lebedev grid points for other atoms
	Atomic van der Waals radii will be scaled by 1.20
 Remove points where switching function is < 1.0e-08
 Keep 1216 surface tesserae and discard 1746 interior tesserae
 Molecular Surface Area = 260.382 Angst**2
 Requested basis set is def2-TZVPPD
 There are 194 shells and 522 basis functions
 A cutoff of  1.0D-14 yielded  16471 shell pairs
 There are    120017 function pairs (    151791 Cartesian)
 Smallest overlap matrix eigenvalue = 3.75E-06
 Guess MOs from SCF MO coefficient file

 -----------------------------------------------------------------------
  General SCF calculation program by
  Eric Jon Sundstrom, Paul Horn, Yuezhi Mao, Dmitri Zuev, Alec White,
  David Stuck, Shaama M.S., Shane Yost, Joonho Lee, David Small,
  Daniel Levine, Susi Lehtola, Hugh Burton, Evgeny Epifanovsky,
  Bang C. Huynh
 -----------------------------------------------------------------------
 Exchange:     0.1670 Hartree-Fock + 1.0000 wB97X-V + LR-HF
 Correlation:  1.0000 wB97X-V
 Using SG-3 standard quadrature grid
 Nonlocal Correlation:  VV10 with C = 0.0100 and b = 6.00 and scale = 1.00000
 Grid used for NLC:  SG-1 standard quadrature
 
 Citation of the SMD model:
 Marenich, A.V.; Cramer, C.J.; Truhlar, D.G.
 J. Phys. Chem. B 2009, 113, 6378-6396.
 iSolventCode=           0
 Solvent: other                                                           
 
 vradii
            1           2           3           4           5           6
    1   2.2940000   1.8500000   2.2940000   2.2940000   1.8500000   2.2940000
            7           8           9          10          11          12
    1   1.8500000   1.8500000   2.2940000   2.2940000   2.1476001   2.1476001
           13          14          15          16          17
    1   1.2000000   1.2000000   1.2000000   1.2000000   2.1476001
 using 40 threads for integral computing
 -------------------------------------------------------
 OpenMP Integral computing Module                
 Release: version 1.0, May 2013, Q-Chem Inc. Pittsburgh 
 -------------------------------------------------------
 using 40 threads for integral computing
 -------------------------------------------------------
 OpenMP Integral computing Module                
 Release: version 1.0, May 2013, Q-Chem Inc. Pittsburgh 
 -------------------------------------------------------
 -------------------------------------------------------
 OpenMP BLAS3 based DFT computing Module                
 Release: version 1.0, May 2013, Q-Chem Inc. Pittsburgh 
 -------------------------------------------------------
 -------------------------------------------------------
 OpenMP BLAS3 based DFT computing Module                
 Release: version 1.0, May 2013, Q-Chem Inc. Pittsburgh 
 -------------------------------------------------------
 -------------------------------------------------------
 OpenMP BLAS3 based DFT computing Module                
 Release: version 1.0, May 2013, Q-Chem Inc. Pittsburgh 
 -------------------------------------------------------
 A unrestricted SCF calculation will be
 performed using Roothaan-Hall, DIIS
 SCF converges when DIIS error is below 1.0e-08
 ---------------------------------------
  Cycle       Energy         DIIS error
 ---------------------------------------
    1    -627.5646958242      1.07e-04  Roothaan Step
 ---------------------------------------
  Cycle       Energy         DIIS error
 ---------------------------------------
    1    -628.9701520052      1.21e-04  
    2    -628.9725742427      8.75e-05  
    3    -628.9732833430      3.25e-05  
    4    -628.9734048921      8.89e-06  
    5    -628.9734284406      3.93e-06  
    6    -628.9734340664      1.53e-06  
    7    -628.9734363487      8.96e-07  
    8    -628.9734371069      5.53e-07  
    9    -628.9734374996      2.52e-07  
   10    -628.9734375742      1.66e-07  
   11    -628.9734375941      7.26e-08  
   12    -628.9734376000      5.29e-08  
   13    -628.9734376022      3.05e-08  
   14    -628.9734376033      1.67e-08  
   15    -628.9734376037      7.82e-09  Convergence criterion met
 ---------------------------------------
 SCF time:   CPU 6975.63s  wall 306.00s 
<S^2> =          0.763406652
(3)  G-ENP(liq) elect-nuc-pol free energy of system     -628.973437604 a.u.
(4)  G-CDS(liq) cavity-dispersion-solvent structure 
     free energy                                               -2.9384 kcal/mol
(6)  G-S(liq) free energy of system                     -628.978120163 a.u.
 SCF   energy in the final basis set =     -628.9734376037
 Total energy in the final basis set =     -628.9781201629
 
 --------------------------------------------------------------
 
                    Orbital Energies (a.u.)
 --------------------------------------------------------------
 
 Alpha MOs
 -- Occupied --
-19.2361 -19.2096 -19.1734 -19.1690 -19.1532 -19.1431 -10.4097 -10.3597
-10.3068 -10.2883  -2.0937  -2.0820  -2.0676  -1.2349  -1.1805  -1.1359
 -1.0880  -1.0781  -1.0441  -0.8851  -0.7493  -0.6747  -0.6367  -0.6043
 -0.5910  -0.5768  -0.5629  -0.5541  -0.5417  -0.5267  -0.5038  -0.4673
 -0.4542  -0.4382  -0.4206  -0.4105  -0.3966  -0.3875  -0.3768  -0.3702
 -0.3659  -0.3518  -0.1696
 -- Virtual --
  0.0283   0.0301   0.0307   0.0419   0.0448   0.0463   0.0496   0.0587
  0.0600   0.0637   0.0679   0.0808   0.1022   0.1067   0.1218   0.1227
  0.1270   0.1316   0.1352   0.1380   0.1406   0.1425   0.1474   0.1530
  0.1555   0.1572   0.1597   0.1638   0.1694   0.1721   0.1737   0.1771
  0.1803   0.1834   0.1946   0.2050   0.2086   0.2127   0.2207   0.2257
  0.2342   0.2374   0.2515   0.2583   0.2680   0.2721   0.2737   0.2832
  0.2844   0.2957   0.2988   0.3126   0.3158   0.3179   0.3234   0.3344
  0.3379   0.3437   0.3471   0.3531   0.3568   0.3587   0.3622   0.3751
  0.3774   0.3790   0.3852   0.3885   0.3978   0.3999   0.4076   0.4107
  0.4158   0.4187   0.4242   0.4278   0.4306   0.4370   0.4383   0.4440
  0.4475   0.4533   0.4601   0.4661   0.4755   0.4772   0.4822   0.4867
  0.4896   0.4967   0.5047   0.5053   0.5092   0.5113   0.5161   0.5182
  0.5226   0.5369   0.5444   0.5469   0.5515   0.5557   0.5673   0.5706
  0.5718   0.5806   0.5867   0.5928   0.5968   0.6028   0.6037   0.6159
  0.6245   0.6289   0.6317   0.6372   0.6431   0.6446   0.6557   0.6565
  0.6753   0.6781   0.6845   0.6898   0.6966   0.7053   0.7088   0.7142
  0.7206   0.7218   0.7285   0.7365   0.7487   0.7489   0.7598   0.7649
  0.7716   0.7758   0.7837   0.7944   0.8106   0.8152   0.8220   0.8290
  0.8318   0.8394   0.8421   0.8490   0.8536   0.8617   0.8767   0.8792
  0.8838   0.8966   0.9026   0.9173   0.9200   0.9330   0.9359   0.9381
  0.9473   0.9571   0.9729   0.9807   0.9892   0.9904   1.0095   1.0136
  1.0235   1.0431   1.0451   1.0522   1.0620   1.0663   1.0754   1.0880
  1.0912   1.1047   1.1062   1.1283   1.1347   1.1408   1.1430   1.1774
  1.1893   1.2015   1.2061   1.2131   1.2433   1.2564   1.2587   1.2836
  1.2976   1.3024   1.3172   1.3225   1.3368   1.3463   1.3550   1.3577
  1.3696   1.3891   1.3995   1.4050   1.4130   1.4333   1.4487   1.4521
  1.4751   1.4769   1.4954   1.5078   1.5164   1.5575   1.5653   1.5740
  1.5918   1.6076   1.6432   1.6585   1.6759   1.7350   1.7524   1.7608
  1.7765   1.8099   1.8430   1.8637   1.8737   1.9072   1.9229   1.9363
  1.9450   1.9515   1.9722   1.9814   1.9899   1.9951   2.0150   2.0298
  2.0494   2.0612   2.0717   2.0889   2.0973   2.1217   2.1323   2.1519
  2.1758   2.1933   2.2327   2.2466   2.2622   2.2723   2.2915   2.3135
  2.3524   2.3689   2.3802   2.3906   2.3988   2.4144   2.4509   2.4556
  2.4610   2.4724   2.4912   2.5052   2.5668   2.5877   2.6406   2.6488
  2.6883   2.7175   2.7447   2.8044   2.8369   2.8873   2.9311   2.9576
  2.9721   2.9795   2.9956   3.0180   3.0317   3.0479   3.0601   3.0817
  3.1227   3.1433   3.1674   3.1966   3.2152   3.2240   3.2440   3.2555
  3.2791   3.2858   3.2995   3.3199   3.3246   3.3310   3.3419   3.3598
  3.3698   3.3796   3.3896   3.4088   3.4219   3.4439   3.4623   3.4715
  3.4883   3.5049   3.5131   3.5291   3.5417   3.5554   3.5697   3.5942
  3.5987   3.6169   3.6247   3.6342   3.6348   3.6492   3.6623   3.6640
  3.6890   3.6977   3.7301   3.7500   3.7798   3.7944   3.8355   3.8423
  3.8568   3.9103   3.9350   3.9687   3.9938   4.0170   4.0369   4.0812
  4.1130   4.1313   4.1434   4.1694   4.2067   4.2797   4.3001   4.3306
  4.3726   4.4124   4.4463   4.4519   4.5117   4.5229   4.6007   4.6637
  4.7160   4.7271   4.7486   4.7752   4.8240   4.8313   4.8705   4.8982
  4.9386   4.9797   4.9821   5.0541   5.0955   5.1464   5.2058   5.2518
  5.2586   5.2776   5.2961   5.3102   5.3142   5.3242   5.3370   5.3484
  5.3501   5.3769   5.3954   5.4306   5.4444   5.4720   5.4952   5.5238
  5.5410   5.5654   5.5723   5.6093   5.6268   5.6389   5.6588   5.6748
  5.6968   5.7172   5.7305   5.7663   5.7984   5.8114   5.8259   5.8537
  5.9053   5.9463   5.9913   6.0660   6.0821   6.1131   6.1447   6.1611
  6.1702   6.1850   6.2452   6.2609   6.2832   6.2952   6.2966   6.3048
  6.3191   6.3436   6.3475   6.3821   6.4298   6.4485   6.4540   6.4883
  6.5545   6.6173   6.6542   6.6736   6.7087   6.7124   6.7218   6.7557
  6.7619   6.8142   6.8461   6.8630   6.8795   6.9251   6.9512   6.9679
  6.9886   6.9956   7.0248   7.1069   7.1571   7.1832   7.2707   7.2788
  7.3277   7.3802   7.4089   7.4148   7.4429   7.4763   7.5202   7.5243
  7.6684   7.7240  14.8268  14.9513  15.0944  23.4344  23.5607  23.7086
 23.9285  44.1984  44.2944  44.3425  44.3750  44.4554  44.7100
 
 Beta MOs
 -- Occupied --
-19.2355 -19.2092 -19.1733 -19.1690 -19.1513 -19.1409 -10.4096 -10.3538
-10.3070 -10.2825  -2.0937  -2.0819  -2.0674  -1.2342  -1.1739  -1.1350
 -1.0879  -1.0740  -1.0382  -0.8775  -0.7397  -0.6716  -0.6268  -0.6012
 -0.5904  -0.5752  -0.5581  -0.5438  -0.5362  -0.5169  -0.4998  -0.4638
 -0.4511  -0.4288  -0.4184  -0.4077  -0.3960  -0.3846  -0.3767  -0.3699
 -0.3507  -0.3494
 -- Virtual --
  0.0293   0.0308   0.0334   0.0444   0.0461   0.0470   0.0507   0.0604
  0.0610   0.0643   0.0665   0.0831   0.0885   0.1062   0.1140   0.1236
  0.1260   0.1282   0.1337   0.1391   0.1411   0.1435   0.1485   0.1510
  0.1574   0.1579   0.1601   0.1634   0.1676   0.1727   0.1755   0.1771
  0.1778   0.1853   0.1963   0.1980   0.2068   0.2109   0.2173   0.2232
  0.2288   0.2362   0.2399   0.2536   0.2625   0.2699   0.2742   0.2755
  0.2849   0.2861   0.2987   0.3008   0.3139   0.3181   0.3197   0.3248
  0.3361   0.3392   0.3459   0.3487   0.3550   0.3592   0.3600   0.3635
  0.3761   0.3799   0.3802   0.3869   0.3898   0.3988   0.4029   0.4096
  0.4119   0.4165   0.4204   0.4264   0.4291   0.4322   0.4381   0.4402
  0.4455   0.4499   0.4563   0.4608   0.4679   0.4758   0.4782   0.4827
  0.4886   0.4905   0.4974   0.5058   0.5065   0.5120   0.5136   0.5172
  0.5206   0.5239   0.5380   0.5466   0.5476   0.5530   0.5569   0.5683
  0.5722   0.5730   0.5812   0.5873   0.5931   0.5975   0.6040   0.6074
  0.6172   0.6254   0.6300   0.6327   0.6379   0.6438   0.6459   0.6561
  0.6573   0.6758   0.6788   0.6851   0.6910   0.6980   0.7067   0.7099
  0.7151   0.7219   0.7224   0.7297   0.7377   0.7498   0.7501   0.7609
  0.7662   0.7725   0.7771   0.7847   0.7956   0.8113   0.8166   0.8224
  0.8294   0.8337   0.8401   0.8433   0.8496   0.8546   0.8624   0.8784
  0.8808   0.8852   0.8970   0.9037   0.9184   0.9210   0.9346   0.9370
  0.9398   0.9490   0.9576   0.9735   0.9819   0.9894   0.9915   1.0098
  1.0149   1.0244   1.0442   1.0458   1.0538   1.0627   1.0672   1.0763
  1.0884   1.0917   1.1063   1.1077   1.1295   1.1363   1.1427   1.1453
  1.1781   1.1914   1.2036   1.2065   1.2138   1.2442   1.2579   1.2592
  1.2867   1.3003   1.3032   1.3192   1.3244   1.3376   1.3484   1.3564
  1.3602   1.3715   1.3907   1.4006   1.4058   1.4137   1.4347   1.4533
  1.4561   1.4772   1.4808   1.4978   1.5085   1.5184   1.5593   1.5676
  1.5777   1.5939   1.6108   1.6454   1.6612   1.6785   1.7368   1.7546
  1.7623   1.7776   1.8105   1.8445   1.8644   1.8743   1.9084   1.9265
  1.9370   1.9476   1.9608   1.9751   1.9855   1.9937   1.9987   2.0170
  2.0348   2.0535   2.0660   2.0732   2.0926   2.0993   2.1255   2.1345
  2.1531   2.1768   2.1970   2.2379   2.2533   2.2641   2.2735   2.2950
  2.3147   2.3533   2.3706   2.3829   2.3931   2.4030   2.4189   2.4532
  2.4568   2.4668   2.4747   2.4932   2.5096   2.5685   2.5904   2.6416
  2.6519   2.6927   2.7206   2.7449   2.8082   2.8420   2.8919   2.9316
  2.9603   2.9736   2.9829   2.9977   3.0199   3.0350   3.0519   3.0633
  3.0841   3.1295   3.1474   3.1794   3.1991   3.2206   3.2285   3.2490
  3.2616   3.2862   3.2885   3.3076   3.3229   3.3273   3.3343   3.3479
  3.3610   3.3714   3.3903   3.3963   3.4136   3.4244   3.4481   3.4668
  3.4752   3.4910   3.5103   3.5199   3.5367   3.5488   3.5652   3.5747
  3.5977   3.6039   3.6209   3.6286   3.6360   3.6379   3.6537   3.6668
  3.6680   3.6912   3.7036   3.7346   3.7559   3.7852   3.8013   3.8386
  3.8479   3.8601   3.9149   3.9387   3.9717   3.9975   4.0207   4.0399
  4.0840   4.1174   4.1353   4.1475   4.1705   4.2073   4.2812   4.3036
  4.3320   4.3742   4.4129   4.4471   4.4539   4.5117   4.5257   4.6034
  4.6650   4.7170   4.7312   4.7504   4.7768   4.8275   4.8325   4.8725
  4.9020   4.9406   4.9826   4.9849   5.0547   5.0982   5.1507   5.2072
  5.2544   5.2615   5.2782   5.2994   5.3115   5.3160   5.3262   5.3410
  5.3512   5.3529   5.3811   5.3961   5.4314   5.4471   5.4737   5.4959
  5.5246   5.5423   5.5676   5.5736   5.6106   5.6278   5.6400   5.6623
  5.6756   5.6979   5.7202   5.7318   5.7676   5.8007   5.8122   5.8290
  5.8562   5.9091   5.9464   5.9925   6.0694   6.0822   6.1137   6.1448
  6.1624   6.1713   6.1880   6.2495   6.2610   6.2836   6.2958   6.2973
  6.3058   6.3193   6.3443   6.3477   6.3845   6.4339   6.4489   6.4574
  6.4922   6.5547   6.6177   6.6605   6.6745   6.7091   6.7158   6.7219
  6.7626   6.7689   6.8145   6.8474   6.8652   6.8819   6.9260   6.9512
  6.9729   6.9901   6.9961   7.0307   7.1081   7.1577   7.1860   7.2714
  7.2797   7.3297   7.3835   7.4109   7.4153   7.4431   7.4760   7.5198
  7.5242   7.6690   7.7254  14.8268  14.9515  15.0946  23.4417  23.5662
 23.7099  23.9286  44.1984  44.2966  44.3449  44.3753  44.4557  44.7107
 --------------------------------------------------------------
 
          Ground-State Mulliken Net Atomic Charges

     Atom                 Charge (a.u.)    Spin (a.u.)
  --------------------------------------------------------
      1 O                    -1.008445       0.025786
      2 C                     0.648220       0.629770
      3 O                    -0.847882       0.051799
      4 O                    -0.473361      -0.213336
      5 C                    -0.099446       0.461730
      6 O                    -0.167483      -0.007923
      7 C                     0.655214       0.008224
      8 C                     0.104141      -0.024513
      9 O                    -0.798283      -0.000806
     10 O                    -0.792643       0.002104
     11 Li                    0.814554       0.010581
     12 Li                    0.874561       0.000203
     13 H                     0.102206       0.003034
     14 H                     0.064350       0.008413
     15 H                     0.082071       0.004125
     16 H                     0.027935       0.008681
     17 Li                    0.814290       0.032128
  --------------------------------------------------------
  Sum of atomic charges =     0.000000
  Sum of spin   charges =     1.000000

  Building new vdw surfaces
         Merz-Kollman RESP Net Atomic Charges

     Atom                 Charge (a.u.)
  ----------------------------------------
      1 O                    -0.881529
      2 C                     0.233068
      3 O                    -0.682222
      4 O                    -0.545768
      5 C                    -0.273629
      6 O                    -0.531731
      7 C                     0.933724
      8 C                     0.404563
      9 O                    -0.824236
     10 O                    -0.824236
     11 Li                    0.865813
     12 Li                    0.857628
     13 H                     0.145018
     14 H                     0.145018
     15 H                     0.051524
     16 H                     0.051524
     17 Li                    0.875472
  ----------------------------------------
  Sum of atomic charges =     0.000000

  Related Dipole Moment =     2.6549 (X -2.2899 Y -0.4862 Z  1.2524)

 -----------------------------------------------------------------
                    Cartesian Multipole Moments
 -----------------------------------------------------------------
    Charge (ESU x 10^10)
                 0.0000
    Dipole Moment (Debye)
         X      -2.2566      Y      -0.4797      Z       1.3753
       Tot       2.6859
    Quadrupole Moments (Debye-Ang)
        XX       7.3577     XY      -2.6967     YY     -43.8088
        XZ      -8.0750     YZ       2.9578     ZZ     -82.0659
    Octopole Moments (Debye-Ang^2)
       XXX     166.0721    XXY     -22.5140    XYY     -45.7697
       YYY     159.4437    XXZ      22.3247    XYZ       8.7565
       YYZ     -43.1444    XZZ      11.2902    YZZ      75.5491
       ZZZ    -185.7141
    Hexadecapole Moments (Debye-Ang^3)
      XXXX    -743.7467   XXXY       4.8536   XXYY     -69.5196
      XYYY     157.1927   YYYY    -540.3229   XXXZ    -118.1155
      XXYZ     -10.7195   XYYZ    -126.5814   YYYZ     235.8497
      XXZZ    -576.2516   XYZZ     117.0285   YYZZ    -266.5169
      XZZZ    -446.7866   YZZZ     327.9767   ZZZZ    -889.9423
 -----------------------------------------------------------------
 Calculating analytic gradient of the SCF energy
 Gradient of CDS energy
            1           2           3           4           5           6
    1  -0.0001253   0.0002538   0.0001043   0.0000643  -0.0002523  -0.0008448
    2   0.0000202  -0.0002841   0.0004371  -0.0003276  -0.0003061   0.0000195
    3   0.0004860  -0.0021401   0.0008175   0.0009779   0.0007366  -0.0003419
            7           8           9          10          11          12
    1   0.0000604   0.0003307   0.0001036   0.0004882   0.0000716   0.0000336
    2  -0.0000249   0.0000633  -0.0000010  -0.0000094  -0.0000113   0.0000014
    3   0.0002975  -0.0002208  -0.0000733  -0.0000520   0.0001226  -0.0000019
           13          14          15          16          17
    1  -0.0000318  -0.0001140   0.0000444  -0.0000703  -0.0001163
    2   0.0001271   0.0001382   0.0001420   0.0000022   0.0000134
    3  -0.0001900  -0.0004250  -0.0000058  -0.0000706   0.0000832
 Gradient of SCF Energy
            1           2           3           4           5           6
    1   0.0037638   0.0006205   0.0032636   0.0013453   0.0063418   0.0032841
    2   0.0001955  -0.0003023  -0.0020458   0.0024957   0.0037926   0.0000567
    3  -0.0037063   0.0031013  -0.0050417  -0.0021391   0.0006743   0.0021201
            7           8           9          10          11          12
    1   0.0031750  -0.0031849  -0.0062918  -0.0070151  -0.0049170   0.0084935
    2  -0.0010465   0.0036810   0.0010446   0.0005479   0.0048411  -0.0005238
    3  -0.0012938  -0.0093772   0.0004785   0.0005644   0.0032372  -0.0011315
           13          14          15          16          17
    1  -0.0015486   0.0001900  -0.0016698  -0.0015258  -0.0043248
    2  -0.0020256  -0.0010173   0.0042638  -0.0087745  -0.0051832
    3   0.0004511  -0.0010096   0.0038197   0.0052325   0.0040200
 Max gradient component =       9.377E-03
 RMS gradient           =       3.760E-03
 Computing fast CPCM-SWIG gradient
 Updating gradient with PCM contributions...
 -- total gradient after adding PCM contribution --
---------------------------------------------------
  Atom         X              Y              Z     
---------------------------------------------------
   1      -0.000630       0.000040       0.000181
   2       0.000445      -0.000029      -0.000055
   3       0.000098       0.000046      -0.000079
   4       0.000033      -0.000076      -0.000108
   5       0.000015       0.000001       0.000062
   6       0.000015      -0.000001      -0.000000
   7      -0.000009       0.000004      -0.000001
   8      -0.000020      -0.000000      -0.000004
   9       0.000006      -0.000003      -0.000004
  10       0.000004       0.000005       0.000002
  11       0.000012       0.000026      -0.000005
  12       0.000002      -0.000003      -0.000008
  13       0.000004       0.000002       0.000001
  14       0.000007       0.000008       0.000003
  15      -0.000002      -0.000002       0.000003
  16       0.000000      -0.000001      -0.000001
  17       0.000020      -0.000016       0.000014
---------------------------------------------------
 Number of fixed atoms: 0
 Gradient time:  CPU 1273.87 s  wall 62.21 s
 ----------------------------------------------------------------
             Standard Nuclear Orientation (Angstroms)
    I     Atom           X                Y                Z
 ----------------------------------------------------------------
    1      O      -4.0730070176     0.1153995258    -0.0270347663
    2      C      -2.8320332920    -0.0299588807    -0.5468396598
    3      O      -2.1162730264     1.0313198515    -0.6926704648
    4      O      -2.2666773785    -1.2351020197    -0.2908166221
    5      C      -1.3947048742    -1.3206830156     1.1811634617
    6      O       0.8744740906    -1.4261541492     1.9007023503
    7      C       2.2021340335    -1.4326781589     1.6930525938
    8      C       0.0314453458    -1.2877672213     0.7301081886
    9      O       2.6691620907    -1.3264416766     0.5249799995
   10      O       2.9304762220    -1.5499983865     2.7163517265
   11      Li     -3.6262931223     1.9108524299    -0.0813347916
   12      Li      4.3281157725    -1.4595548495     1.4436582944
   13      H      -1.6971023060    -2.2668643487     1.6281134349
   14      H      -1.7032774959    -0.4609044654     1.7735298761
   15      H       0.2410363044    -2.1103759795     0.0425390907
   16      H       0.2576173675    -0.3440445531     0.2316516869
   17      Li     -4.0707427142    -1.6863941025     0.2138656013
 ----------------------------------------------------------------
 Nuclear Repulsion Energy =         607.43828204 hartrees
 There are       43 alpha and       42 beta electrons
 Discretize the solute cavity surface with Lebedev spheres
	Using 110 Lebedev grid points for each H atom
	Using 194 Lebedev grid points for other atoms
	Atomic van der Waals radii will be scaled by 1.20
 Remove points where switching function is < 1.0e-08
 Keep 1216 surface tesserae and discard 1746 interior tesserae
 Molecular Surface Area = 260.374 Angst**2
 Requested basis set is def2-TZVPPD
 There are 194 shells and 522 basis functions
 A cutoff of  1.0D-14 yielded  16471 shell pairs
 There are    120017 function pairs (    151791 Cartesian)
 Smallest overlap matrix eigenvalue = 3.75E-06
 Guess MOs from SCF MO coefficient file

 -----------------------------------------------------------------------
  General SCF calculation program by
  Eric Jon Sundstrom, Paul Horn, Yuezhi Mao, Dmitri Zuev, Alec White,
  David Stuck, Shaama M.S., Shane Yost, Joonho Lee, David Small,
  Daniel Levine, Susi Lehtola, Hugh Burton, Evgeny Epifanovsky,
  Bang C. Huynh
 -----------------------------------------------------------------------
 Exchange:     0.1670 Hartree-Fock + 1.0000 wB97X-V + LR-HF
 Correlation:  1.0000 wB97X-V
 Using SG-3 standard quadrature grid
 Nonlocal Correlation:  VV10 with C = 0.0100 and b = 6.00 and scale = 1.00000
 Grid used for NLC:  SG-1 standard quadrature
 
 Citation of the SMD model:
 Marenich, A.V.; Cramer, C.J.; Truhlar, D.G.
 J. Phys. Chem. B 2009, 113, 6378-6396.
 iSolventCode=           0
 Solvent: other                                                           
 
 vradii
            1           2           3           4           5           6
    1   2.2940000   1.8500000   2.2940000   2.2940000   1.8500000   2.2940000
            7           8           9          10          11          12
    1   1.8500000   1.8500000   2.2940000   2.2940000   2.1476001   2.1476001
           13          14          15          16          17
    1   1.2000000   1.2000000   1.2000000   1.2000000   2.1476001
 using 40 threads for integral computing
 -------------------------------------------------------
 OpenMP Integral computing Module                
 Release: version 1.0, May 2013, Q-Chem Inc. Pittsburgh 
 -------------------------------------------------------
 using 40 threads for integral computing
 -------------------------------------------------------
 OpenMP Integral computing Module                
 Release: version 1.0, May 2013, Q-Chem Inc. Pittsburgh 
 -------------------------------------------------------
 -------------------------------------------------------
 OpenMP BLAS3 based DFT computing Module                
 Release: version 1.0, May 2013, Q-Chem Inc. Pittsburgh 
 -------------------------------------------------------
 -------------------------------------------------------
 OpenMP BLAS3 based DFT computing Module                
 Release: version 1.0, May 2013, Q-Chem Inc. Pittsburgh 
 -------------------------------------------------------
 -------------------------------------------------------
 OpenMP BLAS3 based DFT computing Module                
 Release: version 1.0, May 2013, Q-Chem Inc. Pittsburgh 
 -------------------------------------------------------
 A unrestricted SCF calculation will be
 performed using Roothaan-Hall, DIIS
 SCF converges when DIIS error is below 1.0e-08
 ---------------------------------------
  Cycle       Energy         DIIS error
[...]
 O          0.094 -0.128 -0.001   -0.012 -0.035  0.034   -0.303 -0.259  0.065
 C          0.074 -0.016  0.049   -0.088 -0.008  0.057    0.032 -0.051  0.020
 O         -0.143  0.001 -0.015   -0.043  0.017 -0.188    0.017 -0.007  0.045
 C         -0.093 -0.002  0.033    0.032 -0.021  0.193    0.006  0.003 -0.031
 C         -0.010  0.016 -0.082   -0.195  0.041 -0.328    0.064  0.001  0.048
 O         -0.147 -0.000  0.041   -0.155 -0.014  0.175    0.021  0.002 -0.035
 O         -0.069  0.003 -0.005    0.445 -0.011  0.015   -0.069  0.001  0.001
 Li        -0.108  0.380  0.074    0.061 -0.002 -0.020    0.214 -0.213 -0.097
 Li         0.737 -0.011 -0.075   -0.195 -0.008  0.134    0.010  0.001 -0.015
 H          0.171  0.033  0.215    0.026  0.007  0.160    0.157  0.122  0.473
 H          0.087  0.061 -0.057   -0.011  0.032  0.036   -0.019  0.180 -0.342
 H          0.000  0.025 -0.091   -0.270  0.035 -0.333    0.164  0.065  0.001
 H         -0.026  0.028 -0.067   -0.292  0.066 -0.313    0.032  0.049  0.118
 Li         0.045  0.221 -0.050    0.055  0.158 -0.039    0.120  0.076 -0.049
 TransDip   0.373  0.288 -0.021   -0.222  0.091 -0.099    0.230 -0.092  0.005

 Mode:                22                     23                     24
 Frequency:       720.90                 741.89                 761.29
 Force Cnst:      2.8995                 0.8010                 1.5475
 Red. Mass:       9.4696                 2.4700                 4.5318
 IR Active:          YES                    YES                    YES
 IR Intens:      156.489                 28.059                 26.449
 Raman Active:       YES                    YES                    YES
               X      Y      Z        X      Y      Z        X      Y      Z
 O         -0.012  0.395  0.049   -0.046  0.131 -0.051   -0.069 -0.104 -0.005
 C         -0.144 -0.040 -0.345    0.038 -0.011  0.186    0.027  0.051  0.122
 O         -0.094  0.008  0.121   -0.048  0.002 -0.033    0.075  0.013 -0.062
 O          0.177 -0.095 -0.125    0.106 -0.032 -0.004   -0.023  0.027  0.014
 C          0.082 -0.067  0.262   -0.013 -0.087 -0.074   -0.087 -0.071 -0.069
 O          0.119  0.013 -0.147   -0.064  0.004  0.037    0.206  0.015 -0.110
 C          0.075 -0.004  0.039   -0.042  0.011 -0.004    0.144  0.010  0.014
 C          0.029 -0.009 -0.010   -0.026 -0.019 -0.010    0.016 -0.032  0.039
 O         -0.184  0.007 -0.038    0.069 -0.008  0.035   -0.202  0.012 -0.123
 O         -0.009 -0.014  0.136    0.024  0.003 -0.065   -0.062 -0.025  0.214
 Li        -0.000 -0.185 -0.030    0.013 -0.085  0.002   -0.003  0.039  0.010
 Li         0.053 -0.002  0.008   -0.021  0.001  0.000    0.054 -0.001 -0.001
 H          0.118 -0.020  0.397   -0.052  0.190  0.492   -0.276  0.178  0.336
 H          0.103  0.029  0.131    0.018  0.273 -0.580   -0.078  0.237 -0.507
 H         -0.075  0.052 -0.111    0.226  0.159 -0.145    0.167  0.176 -0.163
 H         -0.222  0.049 -0.013   -0.202  0.129  0.184   -0.263  0.117  0.185
 Li        -0.109 -0.340  0.067   -0.012 -0.071  0.022    0.015  0.070 -0.007
 TransDip   0.140 -0.321  0.194   -0.136 -0.097 -0.029    0.107  0.112 -0.055

 Mode:                25                     26                     27
 Frequency:       794.31                 843.35                 877.94
 Force Cnst:      1.0283                 4.4605                 0.9223
 Red. Mass:       2.7662                10.6442                 2.0309
 IR Active:          YES                    YES                    YES
 IR Intens:       30.936                 37.673                 42.600
 Raman Active:       YES                    YES                    YES
               X      Y      Z        X      Y      Z        X      Y      Z
 O          0.077  0.119 -0.076    0.061  0.022 -0.018    0.145  0.020 -0.031
 C          0.071 -0.070  0.189    0.007 -0.034  0.007   -0.012 -0.061 -0.031
 O         -0.126 -0.022  0.002   -0.048 -0.031  0.020   -0.089 -0.089  0.050
 O          0.033 -0.046  0.018   -0.011  0.022  0.015   -0.035  0.105  0.043
 C         -0.067  0.096 -0.106   -0.011  0.039 -0.022   -0.015  0.020 -0.038
 O          0.057 -0.010 -0.021    0.001 -0.163 -0.014    0.007  0.034  0.014
 C          0.044 -0.032 -0.003    0.021  0.821  0.081    0.003 -0.056 -0.007
 C         -0.022  0.050  0.019   -0.006 -0.044 -0.005   -0.008 -0.072 -0.015
 O         -0.046  0.014 -0.040   -0.007 -0.227 -0.027   -0.000  0.016 -0.008
 O         -0.014  0.004  0.065   -0.006 -0.224 -0.017   -0.004  0.013  0.009
 Li         0.016 -0.065  0.000    0.001 -0.008 -0.001   -0.003 -0.008 -0.001
 Li         0.011 -0.002 -0.001    0.002  0.033  0.003    0.002 -0.002 -0.001
 H          0.052 -0.136 -0.526   -0.193  0.007 -0.222   -0.535  0.099 -0.242
 H         -0.368 -0.196  0.161    0.129 -0.020  0.137    0.427  0.081  0.106
 H         -0.302 -0.204  0.229    0.008  0.072 -0.140    0.305  0.209 -0.245
 H          0.289 -0.170 -0.251    0.007  0.038  0.156   -0.268  0.155  0.283
 Li         0.022 -0.042  0.007    0.006 -0.007 -0.001    0.008 -0.006 -0.003
 TransDip  -0.083 -0.097 -0.124   -0.021  0.195 -0.004   -0.157 -0.017 -0.137

 Mode:                28                     29                     30
 Frequency:       980.36                 990.50                1106.02
 Force Cnst:      1.3767                 3.0103                 4.5236
 Red. Mass:       2.4311                 5.2076                 6.2763
 IR Active:          YES                    YES                    YES
 IR Intens:       79.797                  7.543                116.721
 Raman Active:       YES                    YES                    YES
               X      Y      Z        X      Y      Z        X      Y      Z
 O          0.113 -0.014 -0.017   -0.085  0.014  0.017   -0.016  0.006  0.005
 C         -0.062  0.000 -0.065    0.031  0.009  0.029    0.012 -0.006  0.002
 O         -0.042 -0.093  0.038    0.034  0.066 -0.024    0.002  0.006 -0.002
 O         -0.016  0.163  0.040    0.041 -0.121 -0.040    0.021 -0.010  0.002
 C         -0.007 -0.090 -0.019    0.008  0.061  0.013   -0.219 -0.004  0.129
 O         -0.008 -0.029  0.096   -0.049 -0.016  0.286    0.329 -0.024  0.167
 C          0.036  0.010 -0.009    0.118 -0.005 -0.028   -0.120  0.002  0.011
 C         -0.054  0.065 -0.082   -0.188 -0.009 -0.254    0.087  0.029 -0.322
 O          0.017  0.004 -0.072    0.055  0.022 -0.220   -0.034 -0.015  0.153
 O         -0.004 -0.006  0.049    0.001 -0.014  0.154   -0.137  0.020 -0.171
 Li        -0.004 -0.006 -0.001    0.003 -0.000 -0.000    0.000  0.000  0.000
 Li        -0.000  0.000 -0.001   -0.007  0.000 -0.003    0.028 -0.000 -0.006
 H          0.528 -0.041  0.475    0.016  0.014 -0.094   -0.351 -0.006  0.041
 H         -0.348  0.030 -0.381    0.578 -0.052  0.480   -0.355 -0.004  0.066
 H         -0.115 -0.128  0.126    0.013  0.065 -0.256    0.372  0.010 -0.195
 H          0.124 -0.070 -0.240   -0.171  0.108 -0.010    0.364  0.030 -0.178
 Li        -0.010  0.008 -0.003    0.002 -0.004  0.000    0.002 -0.002  0.003
 TransDip  -0.225  0.088 -0.153   -0.006  0.009 -0.087   -0.314  0.017 -0.145

 Mode:                31                     32                     33
 Frequency:      1115.62                1129.35                1204.89
 Force Cnst:      1.0639                 2.7381                 1.1885
 Red. Mass:       1.4508                 3.6436                 1.3894
 IR Active:          YES                    YES                    YES
 IR Intens:       74.271                231.657                  3.267
 Raman Active:       YES                    YES                    YES
               X      Y      Z        X      Y      Z        X      Y      Z
 O          0.045 -0.009 -0.025    0.000  0.005 -0.005    0.004 -0.001 -0.002
 C         -0.065  0.062  0.053    0.017 -0.015  0.026   -0.009  0.005  0.005
 O         -0.005 -0.024 -0.005   -0.006 -0.008 -0.004    0.001  0.002 -0.001
 O          0.006 -0.015 -0.043    0.001  0.012 -0.022    0.001 -0.008 -0.002
 C         -0.096  0.016 -0.068   -0.235 -0.004  0.118   -0.005 -0.077 -0.005
 O          0.043  0.004 -0.025   -0.200  0.011 -0.044   -0.003 -0.050 -0.005
 C         -0.010 -0.000 -0.001    0.052 -0.002  0.005    0.001  0.002  0.000
 C         -0.008 -0.009  0.044    0.279 -0.004 -0.046    0.010  0.157  0.014
 O         -0.013 -0.003  0.031    0.033  0.010 -0.105    0.000 -0.002 -0.001
 O         -0.010  0.002 -0.019    0.057 -0.009  0.074   -0.000  0.001  0.000
 Li         0.000 -0.015 -0.001   -0.002  0.004  0.002   -0.000 -0.001 -0.000
 Li         0.002  0.000 -0.000   -0.013  0.000  0.004   -0.000  0.000  0.000
 H          0.465  0.058  0.452   -0.227  0.035  0.248   -0.430  0.084  0.031
 H          0.504 -0.142  0.501   -0.237 -0.077  0.249    0.425  0.081 -0.000
 H          0.057  0.014  0.037    0.506  0.053 -0.068    0.156 -0.188  0.480
 H          0.065 -0.014  0.069    0.527 -0.043 -0.033   -0.169 -0.070 -0.513
 Li        -0.004  0.010 -0.003   -0.001 -0.003  0.002    0.001 -0.000  0.001
 TransDip  -0.209  0.159  0.085    0.435 -0.101  0.195   -0.004  0.051  0.028

 Mode:                34                     35                     36
 Frequency:      1222.52                1294.47                1357.23
 Force Cnst:      5.6334                 1.0985                 1.7827
 Red. Mass:       6.3975                 1.1127                 1.6426
 IR Active:          YES                    YES                    YES
 IR Intens:      442.851                  1.065                578.568
 Raman Active:       YES                    YES                    YES
               X      Y      Z        X      Y      Z        X      Y      Z
 O         -0.199  0.061  0.099    0.000 -0.000  0.001   -0.004 -0.001  0.005
 C          0.465 -0.313 -0.157    0.002  0.008 -0.005   -0.005  0.024 -0.018
 O         -0.058  0.022  0.027   -0.002 -0.005  0.001    0.000 -0.002  0.003
 O         -0.088  0.151  0.012    0.001  0.000  0.002    0.013 -0.014  0.014
 C         -0.093 -0.016 -0.112    0.001 -0.083 -0.005    0.017  0.000  0.020
 O          0.032 -0.003 -0.017    0.002  0.029  0.003    0.035  0.003 -0.052
 C          0.008  0.001 -0.004   -0.003  0.000  0.000   -0.136  0.002  0.010
 C         -0.038  0.015  0.038   -0.007  0.035  0.001   -0.146  0.002  0.004
 O         -0.010 -0.002  0.022    0.001  0.000 -0.001    0.023  0.004 -0.046
 O         -0.007  0.001 -0.011    0.001 -0.001  0.001    0.044 -0.006  0.051
 Li         0.005  0.063  0.005    0.000  0.000 -0.000    0.002 -0.003 -0.001
 Li        -0.001  0.000 -0.000    0.000  0.000 -0.000    0.014 -0.000 -0.002
 H          0.405  0.041  0.382   -0.293  0.045  0.062    0.067 -0.084 -0.152
 H          0.381 -0.065  0.213    0.298  0.068 -0.073    0.055  0.105 -0.128
 H          0.099 -0.015  0.114   -0.583  0.029 -0.179    0.647 -0.013  0.279
 H          0.092 -0.034  0.003    0.627 -0.032  0.185    0.570 -0.059  0.237
 Li         0.025 -0.042 -0.004    0.000 -0.002  0.001   -0.001  0.001  0.000
 TransDip   0.585 -0.305 -0.139    0.001 -0.031 -0.011   -0.723  0.186 -0.189

 Mode:                37                     38                     39
 Frequency:      1432.83                1452.55                1477.97
 Force Cnst:     10.4275                 3.9592                 1.6345
 Red. Mass:       8.6206                 3.1849                 1.2700
 IR Active:          YES                    YES                    YES
 IR Intens:      701.246                667.058                  5.083
 Raman Active:       YES                    YES                    YES
               X      Y      Z        X      Y      Z        X      Y      Z
 O         -0.073 -0.036  0.032   -0.004 -0.005  0.002   -0.003 -0.002  0.000
 C          0.366  0.575 -0.106    0.024  0.068 -0.009    0.023  0.034  0.001
 O         -0.215 -0.294  0.035   -0.018 -0.030  0.003   -0.014 -0.018  0.000
 O          0.001 -0.089  0.007    0.009 -0.015  0.004   -0.000 -0.004 -0.002
 C          0.061  0.014 -0.010   -0.018 -0.003  0.051   -0.099 -0.003  0.056
 O          0.006 -0.004  0.007   -0.076  0.001 -0.002    0.006 -0.000  0.002
 C         -0.063  0.000  0.013    0.341 -0.002 -0.053   -0.041 -0.000  0.010
 C          0.025 -0.002 -0.002   -0.111  0.000  0.020    0.076 -0.000 -0.015
 O          0.015  0.002 -0.026   -0.070 -0.011  0.121    0.009  0.002 -0.017
 O          0.015 -0.002  0.016   -0.086  0.011 -0.089    0.009 -0.001  0.009
 Li         0.046 -0.012 -0.019    0.004 -0.002 -0.002    0.003 -0.001 -0.001
 Li         0.006 -0.000 -0.000   -0.028  0.001  0.002    0.003 -0.000  0.000
 H         -0.270  0.201  0.168    0.192 -0.213 -0.282    0.380 -0.355 -0.388
 H         -0.281 -0.225  0.179    0.192  0.255 -0.232    0.377  0.413 -0.316
 H         -0.080  0.028 -0.065    0.457  0.217 -0.091   -0.195 -0.152  0.092
 H         -0.187  0.002 -0.103    0.414 -0.203 -0.152   -0.197  0.136  0.126
 Li        -0.026 -0.032  0.015   -0.005 -0.003  0.002   -0.002 -0.002  0.000
 TransDip   0.355  0.723 -0.266    0.817  0.113 -0.066    0.012  0.069 -0.017

 Mode:                40                     41                     42
 Frequency:      1510.06                1622.35                3088.62
 Force Cnst:      1.5853                19.8403                 5.9480
 Red. Mass:       1.1800                12.7940                 1.0583
 IR Active:          YES                    YES                    YES
 IR Intens:       43.552                903.756                 21.703
 Raman Active:       YES                    YES                    YES
               X      Y      Z        X      Y      Z        X      Y      Z
 O          0.000 -0.000 -0.000    0.000  0.000  0.000    0.000 -0.000 -0.000
 C          0.002  0.004  0.001   -0.002 -0.003 -0.001    0.001 -0.000  0.001
 O         -0.002 -0.003 -0.000    0.001  0.002  0.000   -0.000 -0.000 -0.000
 O          0.000  0.000 -0.001   -0.001  0.000  0.001   -0.001  0.000 -0.001
 C          0.017  0.000 -0.007    0.012  0.001 -0.012   -0.003  0.001  0.004
 O         -0.021  0.002 -0.013    0.011  0.007 -0.073   -0.002  0.000 -0.001
 C          0.077 -0.000 -0.014    0.127 -0.088  0.860    0.002  0.000 -0.002
 C          0.003  0.008 -0.077   -0.047 -0.001  0.018    0.025 -0.009 -0.062
 O         -0.017 -0.002  0.026    0.076  0.029 -0.307   -0.000 -0.000  0.001
 O         -0.018  0.002 -0.017   -0.163  0.033 -0.299   -0.000 -0.000  0.000
 Li         0.000  0.000 -0.000   -0.000  0.000  0.000   -0.000  0.000  0.000
 Li        -0.005  0.000  0.000    0.005 -0.005  0.051    0.000  0.000 -0.000
 H         -0.092  0.077  0.085    0.015  0.008  0.004    0.008  0.025 -0.010
 H         -0.091 -0.088  0.067    0.015 -0.009  0.002    0.011 -0.037 -0.025
 H         -0.033 -0.463  0.500    0.025  0.005  0.055   -0.155  0.620  0.498
 H         -0.018  0.350  0.595    0.024 -0.017  0.051   -0.118 -0.510  0.250
 Li        -0.000 -0.000  0.000    0.000  0.000 -0.000   -0.000 -0.000  0.000
 TransDip   0.201 -0.016  0.064    0.141 -0.096  0.948    0.073 -0.088 -0.096

 Mode:                43                     44                     45
 Frequency:      3113.90                3147.24                3195.35
 Force Cnst:      6.0265                 6.4678                 6.7039
 Red. Mass:       1.0549                 1.1083                 1.1144
 IR Active:          YES                    YES                    YES
 IR Intens:       22.827                 11.691                 28.326
 Raman Active:       YES                    YES                    YES
               X      Y      Z        X      Y      Z        X      Y      Z
 O         -0.000 -0.000  0.000    0.000  0.000 -0.000   -0.000  0.000  0.000
 C         -0.000  0.001 -0.001   -0.000 -0.000 -0.000   -0.000 -0.001 -0.000
 O          0.000  0.000  0.000    0.000 -0.000  0.000    0.000  0.000  0.000
 O          0.001 -0.000  0.000    0.000  0.000  0.000    0.000  0.001 -0.000
 C         -0.036 -0.012  0.053   -0.002  0.020  0.005    0.002 -0.095 -0.012
 O         -0.000  0.000 -0.000    0.000  0.000  0.000   -0.000  0.000 -0.000
 C          0.000 -0.000  0.000   -0.000  0.000  0.000    0.000  0.000  0.000
 C          0.002  0.004  0.003   -0.006 -0.093  0.001   -0.001 -0.021 -0.001
 O         -0.000 -0.000 -0.000   -0.000  0.000 -0.000   -0.000  0.000 -0.000
 O         -0.000  0.000 -0.000    0.000 -0.000 -0.000   -0.000 -0.000 -0.000
 Li         0.000 -0.000  0.000   -0.000 -0.000  0.000   -0.000  0.000 -0.000
 Li         0.000 -0.000 -0.000    0.000  0.000  0.000    0.000 -0.000  0.000
 H          0.214  0.663 -0.290   -0.027 -0.092  0.044    0.186  0.554 -0.257
 H          0.183 -0.523 -0.339    0.051 -0.150 -0.104   -0.213  0.579  0.396
 H          0.012 -0.050 -0.042   -0.115  0.415  0.349   -0.031  0.102  0.084
 H         -0.003 -0.002  0.001    0.177  0.690 -0.361    0.038  0.141 -0.073
 Li         0.000 -0.000  0.000   -0.000  0.000 -0.000    0.000 -0.000  0.000
 TransDip  -0.082 -0.025  0.127   -0.013 -0.109 -0.006   -0.011 -0.168 -0.024

 STANDARD THERMODYNAMIC QUANTITIES AT   298.15 K  AND     1.00 ATM

   This Molecule has  1 Imaginary Frequencies
   Zero point vibrational energy:       58.597 kcal/mol

   Atom    1 Element O  Has Mass   15.99491
   Atom    2 Element C  Has Mass   12.00000
   Atom    3 Element O  Has Mass   15.99491
   Atom    4 Element O  Has Mass   15.99491
   Atom    5 Element C  Has Mass   12.00000
   Atom    6 Element O  Has Mass   15.99491
   Atom    7 Element C  Has Mass   12.00000
   Atom    8 Element C  Has Mass   12.00000
   Atom    9 Element O  Has Mass   15.99491
   Atom   10 Element O  Has Mass   15.99491
   Atom   11 Element Li Has Mass    7.01600
   Atom   12 Element Li Has Mass    7.01600
   Atom   13 Element H  Has Mass    1.00783
   Atom   14 Element H  Has Mass    1.00783
   Atom   15 Element H  Has Mass    1.00783
   Atom   16 Element H  Has Mass    1.00783
   Atom   17 Element Li Has Mass    7.01600
   Molecular Mass:   169.048780 amu
   Principal axes and moments of inertia in amu*Bohr^2:
                             1           2           3
    Eigenvalues --      639.91853  5024.94021  5248.90464
          X               0.92315     0.36418    -0.12318
          Y              -0.23968     0.79570     0.55624
          Z               0.30059    -0.48397     0.82184
   Rotational Symmetry Number is   1
   The Molecule is an Asymmetric Top
   Translational Enthalpy:        0.889 kcal/mol
   Rotational Enthalpy:           0.889 kcal/mol
   Vibrational Enthalpy:         65.238 kcal/mol
   gas constant (RT):             0.592 kcal/mol
   Translational Entropy:        41.283  cal/mol.K
   Rotational Entropy:           31.201  cal/mol.K
   Vibrational Entropy:          46.580  cal/mol.K

   Total Enthalpy:               67.608 kcal/mol
   Total Entropy:               119.064  cal/mol.K
Archival summary:
1\1\n0092.lr6\FREQ\ProcedureUnspecified\BasisUnspecified\64i34(2)\ewcspott\SunAug1617:53:432020SunAug1617:53:432020\0\\#,FREQ,ProcedureUnspecified,BasisUnspecified,\\0,2\O\C,1,1.34382\O,2,1.2615,1,116.457\O,2,1.26246,1,120.534,3,179.948,0\C,1,1.44919,2,116.768,3,179.825,0\H,5,1.09097,1,109.333,2,-60.0723,0\H,5,1.09241,1,108.959,2,58.8502,0\C,5,1.49614,1,107.992,2,179.342,0\H,8,1.08873,5,114.634,1,67.7068,0\H,8,1.08925,5,114.045,1,-64.1468,0\O,8,1.713,5,103.006,1,-177.056,0\C,11,1.35556,8,114.772,5,-104.851,0\O,12,1.28837,11,121.467,8,62.0402,0\O,12,1.35316,11,113.877,8,-88.0992,0\Li,14,1.81684,12,86.7927,11,-14.4498,0\Li,13,1.85134,12,84.3088,11,-152.368,0\Li,3,1.89244,2,82.9019,1,179.754,0\\\@

 Total job time:  37851.07s(wall), 853854.02s(cpu) 
 Sun Aug 16 17:53:43 2020

        *************************************************************
        *                                                           *
        *  Thank you very much for using Q-Chem.  Have a nice day.  *
        *                                                           *
        *************************************************************


