
Running Job 1 of 1 mol.qin
qchem mol.qin_142081.0 /tmp/scratch/ 0
/clusterfs/mp/software/qchem/exe/qcprog.exe_s mol.qin_142081.0 /tmp/scratch/
                  Welcome to Q-Chem
     A Quantum Leap Into The Future Of Chemistry


 Q-Chem 5.2, Q-Chem, Inc., Pleasanton, CA (2019)

 Yihan Shao,  Zhengting Gan,  E. Epifanovsky,  A. T. B. Gilbert,  M. Wormit,  
 J. Kussmann,  A. W. Lange,  A. Behn,  Jia Deng,  Xintian Feng,  D. Ghosh,  
 M. Goldey,  P. R. Horn,  L. D. Jacobson,  I. Kaliman,  T. Kus,  A. Landau,  
 Jie Liu,  E. I. Proynov,  R. M. Richard,  R. P. Steele,  E. J. Sundstrom,  
 H. L. Woodcock III,  P. M. Zimmerman,  D. Zuev,  B. Alam,  B. Albrecht,  
 E. Alguire,  S. A. Baeppler,  D. Barton,  Z. Benda,  Y. A. Bernard,  
 E. J. Berquist,  K. B. Bravaya,  H. Burton,  K. Carter-Fenk,  D. Casanova,  
 Chun-Min Chang,  Yunqing Chen,  A. Chien,  K. D. Closser,  M. P. Coons,  
 S. Coriani,  S. Dasgupta,  A. L. Dempwolff,  M. Diedenhofen,  Hainam Do,  
 R. G. Edgar,  Po-Tung Fang,  S. Faraji,  S. Fatehi,  Qingguo Feng,  
 J. Fosso-Tande,  J. Gayvert,  Qinghui Ge,  A. Ghysels,  G. Gidofalvi,  
 J. Gomes,  J. Gonthier,  A. Gunina,  D. Hait,  M. W. D. Hanson-Heine,  
 P. H. P. Harbach,  A. W. Hauser,  M. F. Herbst,  J. E. Herr,  
 E. G. Hohenstein,  Z. C. Holden,  Kerwin Hui,  B. C. Huynh,  T.-C. Jagau,  
 Hyunjun Ji,  B. Kaduk,  K. Khistyaev,  Jaehoon Kim,  P. Klunzinger,  K. Koh,  
 D. Kosenkov,  L. Koulias,  T. Kowalczyk,  C. M. Krauter,  A. Kunitsa,  
 Ka Un Lao,  A. Laurent,  K. V. Lawler,  Joonho Lee,  D. Lefrancois,  
 S. Lehtola,  D. S. Levine,  Yi-Pei Li,  You-Sheng Lin,  Fenglai Liu,  
 Kuan-Yu Liu,  E. Livshits,  M. Loipersberger,  A. Luenser,  P. Manohar,  
 E. Mansoor,  S. F. Manzer,  Shan-Ping Mao,  Yuezhi Mao,  N. Mardirossian,  
 A. V. Marenich,  T. Markovich,  L. A. Martinez-Martinez,  S. A. Maurer,  
 N. J. Mayhall,  S. C. McKenzie,  J.-M. Mewes,  P. Morgante,  A. F. Morrison,  
 J. W. Mullinax,  K. Nanda,  T. S. Nguyen-Beck,  R. Olivares-Amaya,  
 J. A. Parkhill,  S. K. Paul,  Zheng Pei,  T. M. Perrine,  F. Plasser,  
 P. Pokhilko,  S. Prager,  A. Prociuk,  E. Ramos,  B. Rana,  D. R. Rehn,  
 F. Rob,  M. Scheurer,  M. Schneider,  N. Sergueev,  S. M. Sharada,  
 S. Sharma,  D. W. Small,  T. Stauch,  C. J. Stein,  T. Stein,  Yu-Chuan Su,  
 S. P. Veccham,  A. J. W. Thom,  A. Tkatchenko,  T. Tsuchimochi,  
 N. M. Tubman,  L. Vogt,  M. L. Vidal,  O. Vydrov,  M. A. Watson,  J. Wenzel,  
 M. de Wergifosse,  T. A. Wesolowski,  A. White,  J. Witte,  A. Yamada,  
 Jun Yang,  K. Yao,  S. Yeganeh,  S. R. Yost,  Zhi-Qiang You,  A. Zech,  
 Igor Ying Zhang,  Xing Zhang,  Yan Zhao,  Ying Zhu,  B. R. Brooks,  
 G. K. L. Chan,  C. J. Cramer,  M. S. Gordon,  W. J. Hehre,  A. Klamt,  
 M. W. Schmidt,  C. D. Sherrill,  D. G. Truhlar,  A. Aspuru-Guzik,  R. Baer,  
 A. T. Bell,  N. A. Besley,  Jeng-Da Chai,  A. E. DePrince, III,  
 R. A. DiStasio Jr.,  A. Dreuw,  B. D. Dunietz,  T. R. Furlani,  
 Chao-Ping Hsu,  Yousung Jung,  Jing Kong,  D. S. Lambrecht,  WanZhen Liang,  
 C. Ochsenfeld,  V. A. Rassolov,  L. V. Slipchenko,  J. E. Subotnik,  
 T. Van Voorhis,  J. M. Herbert,  A. I. Krylov,  P. M. W. Gill,  M. Head-Gordon

 Contributors to earlier versions of Q-Chem not listed above: 
 R. D. Adamson,  B. Austin,  J. Baker,  G. J. O. Beran,  K. Brandhorst,  
 S. T. Brown,  E. F. C. Byrd,  A. K. Chakraborty,  C.-L. Cheng,  
 Siu Hung Chien,  D. M. Chipman,  D. L. Crittenden,  H. Dachsel,  
 R. J. Doerksen,  A. D. Dutoi,  L. Fusti-Molnar,  W. A. Goddard III,  
 A. Golubeva-Zadorozhnaya,  S. R. Gwaltney,  G. Hawkins,  A. Heyden,  
 S. Hirata,  G. Kedziora,  F. J. Keil,  C. Kelley,  Jihan Kim,  R. A. King,  
 R. Z. Khaliullin,  P. P. Korambath,  W. Kurlancheek,  A. M. Lee,  M. S. Lee,  
 S. V. Levchenko,  Ching Yeh Lin,  D. Liotard,  R. C. Lochan,  I. Lotan,  
 P. E. Maslen,  N. Nair,  D. P. O'Neill,  D. Neuhauser,  E. Neuscamman,  
 C. M. Oana,  R. Olson,  B. Peters,  R. Peverati,  P. A. Pieniazek,  
 Y. M. Rhee,  J. Ritchie,  M. A. Rohrdanz,  E. Rosta,  N. J. Russ,  
 H. F. Schaefer III,  N. E. Schultz,  N. Shenvi,  A. C. Simmonett,  A. Sodt,  
 D. Stuck,  K. S. Thanthiriwatte,  V. Vanovschi,  Tao Wang,  A. Warshel,  
 C. F. Williams,  Q. Wu,  X. Xu,  W. Zhang

 Please cite Q-Chem as follows:
 Y. Shao et al., Mol. Phys. 113, 184-215 (2015)
 DOI: 10.1080/00268976.2014.952696

 Q-Chem 5.2.2 for Intel X86 EM64T Linux

 Parts of Q-Chem use Armadillo 8.300.2 (Tropical Shenanigans).
 http://arma.sourceforge.net/

 Q-Chem begins on Fri Aug 14 14:32:46 2020  

Host: 
0

     Scratch files written to /tmp/scratch//
 Nov2519 |scratch|qcdevops|jenkins|workspace|build_RNUM 6829   
Processing $rem in /clusterfs/mp/software/qchem/config/preferences:
	 MEM_TOTAL  96000 
NAlpha2: 58
NElect   58
Mult     1
Symmetry turned off for PCM/SM12/SMD calculation

Checking the input file for inconsistencies... 	...done.

--------------------------------------------------------------
User input:
--------------------------------------------------------------
$molecule
0 1
C     -1.1489248525      0.2900793983     -0.8067383679
C     -1.1119454191      0.5818973472      0.6789568808
O      0.1671010725      1.2378939996      0.9861361818
C      0.9399286687      1.2746740154     -0.0697996354
O      0.4229825921      0.7676701635     -1.1572760136
O      2.0785262938      1.7499376605     -0.0734846796
O     -3.1764417702     -0.2829043757     -0.2759258599
Li      2.1957983311      1.3285830755     -1.9405584801
H     -1.0812768856     -0.7350347064     -1.1310686469
H     -1.6781742438      0.9723208499     -1.4506722591
H     -1.1530609306     -0.3258214598      1.2733164427
H     -1.8954643540      1.2709228611      0.9748429659
H     -3.4321885025     -0.9002288292     -0.9667185286
$end

$rem
job_type = freq
basis = def2-tzvppd
max_scf_cycles = 200
gen_scfman = true
xc_grid = 3
scf_algorithm = diis
resp_charges = true
symmetry = false
sym_ignore = true
method = wb97xv
solvent_method = smd
ideriv = 1
thresh = 14
$end

$smx
solvent other
$end
--------------------------------------------------------------
 ----------------------------------------------------------------
             Standard Nuclear Orientation (Angstroms)
    I     Atom           X                Y                Z
 ----------------------------------------------------------------
    1      C      -1.1489248525     0.2900793983    -0.8067383679
    2      C      -1.1119454191     0.5818973472     0.6789568808
    3      O       0.1671010725     1.2378939996     0.9861361818
    4      C       0.9399286687     1.2746740154    -0.0697996354
    5      O       0.4229825921     0.7676701635    -1.1572760136
    6      O       2.0785262938     1.7499376605    -0.0734846796
    7      O      -3.1764417702    -0.2829043757    -0.2759258599
    8      Li      2.1957983311     1.3285830755    -1.9405584801
    9      H      -1.0812768856    -0.7350347064    -1.1310686469
   10      H      -1.6781742438     0.9723208499    -1.4506722591
   11      H      -1.1530609306    -0.3258214598     1.2733164427
   12      H      -1.8954643540     1.2709228611     0.9748429659
   13      H      -3.4321885025    -0.9002288292    -0.9667185286
 ----------------------------------------------------------------
 Nuclear Repulsion Energy =         341.03831713 hartrees
 There are       29 alpha and       29 beta electrons
 Requested basis set is def2-TZVPPD
 There are 140 shells and 378 basis functions

 Total QAlloc Memory Limit  96000 MB
 Mega-Array Size       188 MB
 MEM_STATIC part       192 MB
 
 Citation of the SMD model:
 Marenich, A.V.; Cramer, C.J.; Truhlar, D.G.
 J. Phys. Chem. B 2009, 113, 6378-6396.
 iSolventCode=           0
 Solvent: other                                                           
 
 vradii
            1           2           3           4           5           6
    1   1.8500000   1.8500000   2.2940000   1.8500000   2.2940000   2.2940000
            7           8           9          10          11          12
    1   2.2940000   2.1476001   1.2000000   1.2000000   1.2000000   1.2000000
           13
    1   1.2000000
 Changing PCM_VDW_RADII to SMD_RADIUS
 Discretize the solute cavity surface with Lebedev spheres
	Using 110 Lebedev grid points for each H atom
	Using 194 Lebedev grid points for other atoms
	Atomic van der Waals radii will be scaled by 1.20
 Remove points where switching function is < 1.0e-08
 Keep 853 surface tesserae and discard 1249 interior tesserae
 Molecular Surface Area = 180.715 Angst**2

                       Distance Matrix (Angstroms)
             C (  1)   C (  2)   O (  3)   C (  4)   O (  5)   O (  6)
   C (  2)  1.514535
   O (  3)  2.417576  1.469915
   C (  4)  2.424008  2.291454  1.309051
   O (  5)  1.679840  2.400472  2.209254  1.306480
   O (  6)  3.617359  3.479885  2.244667  1.233813  2.209135
   O (  7)  2.172763  2.433481  3.883929  4.406024  3.851797  5.638095
   Li(  8)  3.681197  4.284923  3.562215  2.253853  2.017679  1.917618
   H (  9)  1.077323  2.238625  3.151738  3.041462  2.126407  4.156673
   H ( 10)  1.077130  2.237938  3.068160  2.975347  2.131390  4.076044
   H ( 11)  2.169327  1.085775  2.066520  2.957389  3.096355  4.070111
   H ( 12)  2.166427  1.084531  2.062861  3.021712  3.189732  4.137759
   H ( 13)  2.579868  3.207565  4.619534  4.964884  4.204824  6.179743
             O (  7)   Li(  8)   H (  9)   H ( 10)   H ( 11)   H ( 12)
   Li(  8)  5.850543
   H (  9)  2.307684  3.956389
   H ( 10)  2.280444  3.921043  1.836708
   H ( 11)  2.548738  4.927566  2.440016  3.062847
   H ( 12)  2.370592  5.024074  3.020204  2.453467  1.786013
   H ( 13)  0.961088  6.131085  2.362432  2.610981  3.246864  3.293187

 
 A cutoff of  1.0D-14 yielded   9258 shell pairs
 There are     68032 function pairs (     86229 Cartesian)
 Smallest overlap matrix eigenvalue = 4.05E-06
 Guess from superposition of atomic densities
 Warning:  Energy on first SCF cycle will be non-variational
 SAD guess density has 58.000000 electrons

 -----------------------------------------------------------------------
  General SCF calculation program by
  Eric Jon Sundstrom, Paul Horn, Yuezhi Mao, Dmitri Zuev, Alec White,
  David Stuck, Shaama M.S., Shane Yost, Joonho Lee, David Small,
  Daniel Levine, Susi Lehtola, Hugh Burton, Evgeny Epifanovsky,
  Bang C. Huynh
 -----------------------------------------------------------------------
 Exchange:     0.1670 Hartree-Fock + 1.0000 wB97X-V + LR-HF
 Correlation:  1.0000 wB97X-V
 Using SG-3 standard quadrature grid
 Nonlocal Correlation:  VV10 with C = 0.0100 and b = 6.00 and scale = 1.00000
 Grid used for NLC:  SG-1 standard quadrature
 
 Citation of the SMD model:
 Marenich, A.V.; Cramer, C.J.; Truhlar, D.G.
 J. Phys. Chem. B 2009, 113, 6378-6396.
 iSolventCode=           0
 Solvent: other                                                           
 
 vradii
            1           2           3           4           5           6
    1   1.8500000   1.8500000   2.2940000   1.8500000   2.2940000   2.2940000
            7           8           9          10          11          12
    1   2.2940000   2.1476001   1.2000000   1.2000000   1.2000000   1.2000000
           13
    1   1.2000000
 using 40 threads for integral computing
 -------------------------------------------------------
 OpenMP Integral computing Module                
 Release: version 1.0, May 2013, Q-Chem Inc. Pittsburgh 
 -------------------------------------------------------
 using 40 threads for integral computing
 -------------------------------------------------------
 OpenMP Integral computing Module                
 Release: version 1.0, May 2013, Q-Chem Inc. Pittsburgh 
 -------------------------------------------------------
 -------------------------------------------------------
 OpenMP BLAS3 based DFT computing Module                
 Release: version 1.0, May 2013, Q-Chem Inc. Pittsburgh 
 -------------------------------------------------------
 -------------------------------------------------------
 OpenMP BLAS3 based DFT computing Module                
 Release: version 1.0, May 2013, Q-Chem Inc. Pittsburgh 
 -------------------------------------------------------
 -------------------------------------------------------
 OpenMP BLAS3 based DFT computing Module                
 Release: version 1.0, May 2013, Q-Chem Inc. Pittsburgh 
 -------------------------------------------------------
 A restricted SCF calculation will be
 performed using DIIS
 SCF converges when DIIS error is below 1.0e-08
 ---------------------------------------
  Cycle       Energy         DIIS error
 ---------------------------------------
    1    -426.9291431109      2.28e-02  
    2    -425.5125211572      4.54e-03  
    3    -425.3275531477      6.09e-03  
    4    -425.7946123279      7.57e-04  
    5    -425.8008778573      2.76e-04  
    6    -425.8018412963      5.22e-05  
    7    -425.8018887339      3.01e-05  
    8    -425.8019035143      7.61e-06  
    9    -425.8019057432      2.95e-06  
   10    -425.8019061722      1.24e-06  
   11    -425.8019062586      4.92e-07  
   12    -425.8019062680      2.79e-07  
   13    -425.8019062701      5.24e-08  
   14    -425.8019062703      1.86e-08  
   15    -425.8019062703      5.77e-09  Convergence criterion met
 ---------------------------------------
 SCF time:   CPU 2422.98s  wall 86.00s 
(3)  G-ENP(liq) elect-nuc-pol free energy of system     -425.801906270 a.u.
(4)  G-CDS(liq) cavity-dispersion-solvent structure 
     free energy                                               -3.1338 kcal/mol
(6)  G-S(liq) free energy of system                     -425.806900351 a.u.
 SCF   energy in the final basis set =     -425.8019062703
 Total energy in the final basis set =     -425.8069003510
 
 --------------------------------------------------------------
 
                    Orbital Energies (a.u.)
 --------------------------------------------------------------
 
 Alpha MOs
 -- Occupied --
-19.2759 -19.2587 -19.2181 -19.0873 -10.4591 -10.3424 -10.3303  -2.1375
 -1.2984  -1.1858  -1.1586  -0.9739  -0.8973  -0.7929  -0.7123  -0.6511
 -0.6361  -0.6125  -0.5678  -0.5564  -0.5291  -0.5009  -0.4871  -0.4390
 -0.4377  -0.4299  -0.4192  -0.3034  -0.3002
 -- Virtual --
  0.0249   0.0436   0.0449   0.0475   0.0751   0.0838   0.1053   0.1091
  0.1135   0.1148   0.1257   0.1288   0.1321   0.1379   0.1440   0.1467
  0.1599   0.1609   0.1690   0.1712   0.1806   0.2027   0.2097   0.2201
  0.2204   0.2377   0.2417   0.2503   0.2642   0.2698   0.2733   0.2845
  0.2895   0.2928   0.3062   0.3234   0.3285   0.3368   0.3426   0.3474
  0.3490   0.3590   0.3630   0.3652   0.3731   0.3747   0.3801   0.3925
  0.4001   0.4064   0.4088   0.4121   0.4234   0.4290   0.4362   0.4415
  0.4599   0.4671   0.4820   0.4847   0.4901   0.4954   0.5050   0.5087
  0.5141   0.5209   0.5281   0.5334   0.5362   0.5542   0.5677   0.5743
  0.5794   0.5900   0.6024   0.6089   0.6203   0.6238   0.6309   0.6423
  0.6501   0.6623   0.6744   0.6796   0.6864   0.6933   0.7020   0.7156
  0.7226   0.7297   0.7299   0.7386   0.7464   0.7733   0.7790   0.7833
  0.7975   0.8022   0.8077   0.8144   0.8302   0.8334   0.8442   0.8555
  0.8607   0.8888   0.8962   0.9032   0.9280   0.9384   0.9450   0.9696
  0.9907   1.0058   1.0145   1.0216   1.0313   1.0362   1.0490   1.0754
  1.1102   1.1260   1.1375   1.1388   1.1727   1.1966   1.2066   1.2243
  1.2386   1.2526   1.2744   1.2854   1.2940   1.3004   1.3188   1.3355
  1.3405   1.3493   1.3720   1.3962   1.4040   1.4165   1.4347   1.4529
  1.4692   1.4907   1.5133   1.5303   1.5538   1.5768   1.5883   1.6192
  1.6234   1.6404   1.6502   1.6845   1.7392   1.7561   1.7916   1.8427
  1.8566   1.8610   1.8908   1.8984   1.9280   1.9738   1.9988   2.0163
  2.0570   2.0753   2.0915   2.1083   2.1127   2.1480   2.1751   2.2202
  2.2595   2.2699   2.3198   2.3358   2.3600   2.3799   2.4123   2.4434
  2.4597   2.4668   2.4971   2.5395   2.5620   2.6015   2.7737   2.7955
  2.8112   2.8397   2.8587   2.9101   2.9299   2.9581   2.9827   3.0083
  3.0208   3.0329   3.0568   3.0804   3.1087   3.1180   3.1547   3.1719
  3.1911   3.2407   3.2619   3.2689   3.2747   3.3053   3.3266   3.3366
  3.3631   3.3792   3.3893   3.4132   3.4335   3.4459   3.4683   3.4944
  3.5213   3.5423   3.5587   3.5753   3.5810   3.5890   3.6036   3.6201
  3.6387   3.6486   3.6544   3.6673   3.7622   3.7802   3.7886   3.8082
  3.8704   3.9054   3.9087   3.9426   3.9591   4.0133   4.0254   4.0457
  4.0741   4.1174   4.1263   4.2035   4.2355   4.2400   4.2657   4.3032
  4.3346   4.3586   4.3752   4.4270   4.4322   4.4591   4.4632   4.5305
  4.5628   4.5965   4.6525   4.7079   4.7485   4.7632   4.8523   4.8908
  4.9537   4.9730   5.0402   5.0484   5.0768   5.0914   5.1265   5.1664
  5.2510   5.2586   5.2953   5.3272   5.3344   5.4217   5.4543   5.4637
  5.4855   5.5481   5.5697   5.5933   5.6134   5.6530   5.6574   5.6932
  5.7139   5.7269   5.7496   5.7631   5.8156   5.8567   5.9012   5.9605
  5.9770   5.9944   6.0069   6.0490   6.0786   6.2173   6.2567   6.2783
  6.3068   6.3457   6.4664   6.4758   6.5937   6.6169   6.7199   6.7326
  6.7553   6.8029   6.8114   6.8343   6.8807   6.8943   6.9203   6.9677
  6.9988   7.0168   7.1137   7.1172   7.1784   7.2790   7.4106   7.4608
  7.4796   7.5878   7.6326   7.6930   7.8374  14.8496  23.5316  23.7018
 24.0096  44.1006  44.3785  44.3974  44.5795
 --------------------------------------------------------------
 
          Ground-State Mulliken Net Atomic Charges

     Atom                 Charge (a.u.)
  ----------------------------------------
      1 C                     0.119731
      2 C                     0.144109
      3 O                    -0.259158
      4 C                     0.792035
      5 O                    -0.540087
      6 O                    -0.704914
      7 O                    -0.829422
      8 Li                    0.891672
      9 H                     0.105968
     10 H                     0.118906
     11 H                     0.042723
     12 H                     0.056625
     13 H                     0.061811
  ----------------------------------------
  Sum of atomic charges =     0.000000

  Building new vdw surfaces
         Merz-Kollman RESP Net Atomic Charges

     Atom                 Charge (a.u.)
  ----------------------------------------
      1 C                     0.310090
      2 C                     0.097399
      3 O                    -0.441949
      4 C                     0.943481
      5 O                    -0.715096
      6 O                    -0.716491
      7 O                    -1.204381
      8 Li                    0.890511
      9 H                     0.111575
     10 H                     0.111575
     11 H                     0.135296
     12 H                     0.135296
     13 H                     0.342696
  ----------------------------------------
  Sum of atomic charges =     0.000000

  Related Dipole Moment =    13.9169 (X 11.7254 Y  1.7728 Z -7.2838)

 -----------------------------------------------------------------
                    Cartesian Multipole Moments
 -----------------------------------------------------------------
    Charge (ESU x 10^10)
                -0.0000
    Dipole Moment (Debye)
         X      11.8801      Y       1.9296      Z      -7.3884
       Tot      14.1226
    Quadrupole Moments (Debye-Ang)
        XX     -65.7037     XY       1.0521     YY     -41.3200
        XZ     -15.7060     YZ      -9.1636     ZZ     -28.1547
    Octopole Moments (Debye-Ang^2)
       XXX     195.6749    XXY     -19.6409    XYY      15.6647
       YYY     -95.0118    XXZ     -36.1354    XYZ     -28.0379
       YYZ     -10.0836    XZZ      46.7097    YZZ     -14.6144
       ZZZ     -12.6146
    Hexadecapole Moments (Debye-Ang^3)
      XXXX   -1222.2944   XXXY     -87.9098   XXYY    -185.8080
      XYYY    -112.3437   YYYY    -316.1021   XXXZ     -86.6496
      XXYZ     -35.1767   XYYZ     -29.6430   YYYZ     -20.7306
      XXZZ     -81.8184   XYZZ      14.0629   YYZZ     -57.0580
      XZZZ     -77.5460   YZZZ     -45.0842   ZZZZ    -137.5491
 -----------------------------------------------------------------
 Calculating analytic gradient of the SCF energy
 Gradient of CDS energy
            1           2           3           4           5           6
    1   0.0000777  -0.0000107  -0.0007634   0.0005266  -0.0001220   0.0001855
    2  -0.0001713   0.0002992  -0.0003613   0.0003183   0.0000333  -0.0000814
    3  -0.0008948   0.0012485   0.0000051   0.0005374  -0.0000240  -0.0006621
            7           8           9          10          11          12
    1   0.0005197   0.0000261  -0.0000788  -0.0000479  -0.0001053  -0.0000819
    2   0.0001784   0.0000073   0.0000653  -0.0000696  -0.0000203  -0.0001498
    3  -0.0000389   0.0000185   0.0001412   0.0001437  -0.0002750  -0.0002549
           13
    1  -0.0001258
    2  -0.0000482
    3   0.0000553
 Gradient of SCF Energy
            1           2           3           4           5           6
    1  -0.0053557   0.0000862   0.0001255   0.0016018  -0.0010173  -0.0010113
    2   0.0001771   0.0003754   0.0010722  -0.0012182   0.0006558   0.0014637
    3   0.0032422   0.0021208   0.0030521  -0.0079962   0.0039169   0.0072718
            7           8           9          10          11          12
    1  -0.0141000   0.0025962   0.0023609   0.0036587   0.0014491   0.0040069
    2  -0.0051813  -0.0007908  -0.0022285   0.0016776   0.0011741  -0.0008703
    3  -0.0021301  -0.0068379  -0.0024578  -0.0024673  -0.0009633  -0.0007400
           13
    1   0.0055992
    2   0.0036932
    3   0.0039889
 Max gradient component =       1.410E-02
 RMS gradient           =       3.926E-03
 Computing fast CPCM-SWIG gradient
 Updating gradient with PCM contributions...
 -- total gradient after adding PCM contribution --
---------------------------------------------------
  Atom         X              Y              Z     
---------------------------------------------------
   1       0.000022      -0.000004      -0.000003
   2       0.000037       0.000015       0.000011
   3      -0.000024       0.000001      -0.000009
   4      -0.000004      -0.000005      -0.000010
   5      -0.000022      -0.000001       0.000022
   6       0.000003      -0.000001      -0.000022
   7      -0.000007      -0.000009      -0.000003
   8       0.000005       0.000008       0.000009
   9      -0.000001      -0.000005       0.000010
  10       0.000001      -0.000008      -0.000004
  11      -0.000006       0.000009       0.000002
  12      -0.000004       0.000006      -0.000009
  13       0.000001      -0.000007       0.000006
---------------------------------------------------
 Number of fixed atoms: 0
 Gradient time:  CPU 548.21 s  wall 23.88 s
 ######################################################
 ######################################################
 # Starting finite difference calculation for IDERIV  #
 Finite diff step size:  1.88973e-03 a.u.
 ----------------------------------------------------------------
             Standard Nuclear Orientation (Angstroms)
    I     Atom           X                Y                Z
 ----------------------------------------------------------------
    1      C      -1.1479248525     0.2900793983    -0.8067383679
    2      C      -1.1119454191     0.5818973472     0.6789568808
    3      O       0.1671010725     1.2378939996     0.9861361818
    4      C       0.9399286687     1.2746740154    -0.0697996354
    5      O       0.4229825921     0.7676701635    -1.1572760136
    6      O       2.0785262938     1.7499376605    -0.0734846796
    7      O      -3.1764417702    -0.2829043757    -0.2759258599
    8      Li      2.1957983311     1.3285830755    -1.9405584801
    9      H      -1.0812768856    -0.7350347064    -1.1310686469
   10      H      -1.6781742438     0.9723208499    -1.4506722591
   11      H      -1.1530609306    -0.3258214598     1.2733164427
   12      H      -1.8954643540     1.2709228611     0.9748429659
   13      H      -3.4321885025    -0.9002288292    -0.9667185286
 ----------------------------------------------------------------
 Nuclear Repulsion Energy =         341.04762596 hartrees
 There are       29 alpha and       29 beta electrons
 Discretize the solute cavity surface with Lebedev spheres
	Using 110 Lebedev grid points for each H atom
	Using 194 Lebedev grid points for other atoms
	Atomic van der Waals radii will be scaled by 1.20
 Remove points where switching function is < 1.0e-08
 Keep 853 surface tesserae and discard 1249 interior tesserae
 Molecular Surface Area = 180.715 Angst**2

                       Distance Matrix (Angstroms)
             C (  1)   C (  2)   O (  3)   C (  4)   O (  5)   O (  6)
   C (  2)  1.514511
   O (  3)  2.417032  1.469915
   C (  4)  2.423146  2.291454  1.309051
   O (  5)  1.678904  2.400472  2.209254  1.306480
   O (  6)  3.616467  3.479885  2.244667  1.233813  2.209135
   O (  7)  2.173696  2.433481  3.883929  4.406024  3.851797  5.638095
   Li(  8)  3.680288  4.284923  3.562215  2.253853  2.017679  1.917618
   H (  9)  1.077261  2.238625  3.151738  3.041462  2.126407  4.156673
   H ( 10)  1.077622  2.237938  3.068160  2.975347  2.131390  4.076044
   H ( 11)  2.169329  1.085775  2.066520  2.957389  3.096355  4.070111
   H ( 12)  2.166772  1.084531  2.062861  3.021712  3.189732  4.137759
   H ( 13)  2.580753  3.207565  4.619534  4.964884  4.204824  6.179743
             O (  7)   Li(  8)   H (  9)   H ( 10)   H ( 11)   H ( 12)
   Li(  8)  5.850543
   H (  9)  2.307684  3.956389
   H ( 10)  2.280444  3.921043  1.836708
   H ( 11)  2.548738  4.927566  2.440016  3.062847
   H ( 12)  2.370592  5.024074  3.020204  2.453467  1.786013
   H ( 13)  0.961088  6.131085  2.362432  2.610981  3.246864  3.293187

 
 Requested basis set is def2-TZVPPD
 There are 140 shells and 378 basis functions
 A cutoff of  1.0D-14 yielded   9258 shell pairs
 There are     68032 function pairs (     86229 Cartesian)
 Smallest overlap matrix eigenvalue = 4.05E-06
 Guess MOs from SCF MO coefficient file

 -----------------------------------------------------------------------
  General SCF calculation program by
  Eric Jon Sundstrom, Paul Horn, Yuezhi Mao, Dmitri Zuev, Alec White,
  David Stuck, Shaama M.S., Shane Yost, Joonho Lee, David Small,
  Daniel Levine, Susi Lehtola, Hugh Burton, Evgeny Epifanovsky,
  Bang C. Huynh
 -----------------------------------------------------------------------
 Exchange:     0.1670 Hartree-Fock + 1.0000 wB97X-V + LR-HF
 Correlation:  1.0000 wB97X-V
 Using SG-3 standard quadrature grid
 Nonlocal Correlation:  VV10 with C = 0.0100 and b = 6.00 and scale = 1.00000
 Grid used for NLC:  SG-1 standard quadrature
 
 Citation of the SMD model:
 Marenich, A.V.; Cramer, C.J.; Truhlar, D.G.
 J. Phys. Chem. B 2009, 113, 6378-6396.
 iSolventCode=           0
 Solvent: other                                                           
 
 vradii
            1           2           3           4           5           6
    1   1.8500000   1.8500000   2.2940000   1.8500000   2.2940000   2.2940000
            7           8           9          10          11          12
    1   2.2940000   2.1476001   1.2000000   1.2000000   1.2000000   1.2000000
           13
    1   1.2000000
 using 40 threads for integral computing
 -------------------------------------------------------
 OpenMP Integral computing Module                
 Release: version 1.0, May 2013, Q-Chem Inc. Pittsburgh 
 -------------------------------------------------------
 using 40 threads for integral computing
 -------------------------------------------------------
 OpenMP Integral computing Module                
 Release: version 1.0, May 2013, Q-Chem Inc. Pittsburgh 
 -------------------------------------------------------
 -------------------------------------------------------
 OpenMP BLAS3 based DFT computing Module                
 Release: version 1.0, May 2013, Q-Chem Inc. Pittsburgh 
 -------------------------------------------------------
 -------------------------------------------------------
 OpenMP BLAS3 based DFT computing Module                
 Release: version 1.0, May 2013, Q-Chem Inc. Pittsburgh 
 -------------------------------------------------------
 -------------------------------------------------------
 OpenMP BLAS3 based DFT computing Module                
 Release: version 1.0, May 2013, Q-Chem Inc. Pittsburgh 
 -------------------------------------------------------
 A restricted SCF calculation will be
 performed using Roothaan-Hall, DIIS
 SCF converges when DIIS error is below 1.0e-08
 ---------------------------------------
  Cycle       Energy         DIIS error
 ---------------------------------------
    1    -426.1190155730      3.06e-04  Roothaan Step
 ---------------------------------------
  Cycle       Energy         DIIS error
 ---------------------------------------
    1    -425.7975913818      3.74e-04  
    2    -425.7992106507      4.50e-04  
    3    -425.8017371316      6.42e-05  
    4    -425.8018668491      2.46e-05  
    5    -425.8018973734      1.51e-05  
    6    -425.8019043062      6.04e-06  
    7    -425.8019059737      2.35e-06  
    8    -425.8019062272      6.52e-07  
    9    -425.8019062568      1.74e-07  
   10    -425.8019062582      8.51e-08  
   11    -425.8019062584      3.67e-08  
   12    -425.8019062585      1.26e-08  
   13    -425.8019062585      2.84e-09  Convergence criterion met
 ---------------------------------------
 SCF time:   CPU 2314.89s  wall 82.00s 
(3)  G-ENP(liq) elect-nuc-pol free energy of system     -425.801906258 a.u.
(4)  G-CDS(liq) cavity-dispersion-solvent structure 
     free energy                                               -3.1337 kcal/mol
(6)  G-S(liq) free energy of system                     -425.806900189 a.u.
 SCF   energy in the final basis set =     -425.8019062585
 Total energy in the final basis set =     -425.8069001891
 
 --------------------------------------------------------------
 
                    Orbital Energies (a.u.)
 --------------------------------------------------------------
 
 Alpha MOs
 -- Occupied --
-19.2759 -19.2589 -19.2182 -19.0871 -10.4592 -10.3424 -10.3304  -2.1376
 -1.2985  -1.1859  -1.1588  -0.9738  -0.8974  -0.7930  -0.7124  -0.6512
 -0.6362  -0.6125  -0.5678  -0.5565  -0.5291  -0.5010  -0.4872  -0.4389
 -0.4378  -0.4299  -0.4192  -0.3033  -0.3001
 -- Virtual --
  0.0249   0.0436   0.0449   0.0475   0.0751   0.0838   0.1053   0.1090
  0.1135   0.1148   0.1257   0.1288   0.1321   0.1379   0.1440   0.1467
  0.1600   0.1610   0.1690   0.1712   0.1806   0.2027   0.2097   0.2201
  0.2204   0.2377   0.2417   0.2503   0.2642   0.2698   0.2733   0.2845
  0.2895   0.2927   0.3062   0.3233   0.3285   0.3368   0.3426   0.3474
  0.3490   0.3590   0.3630   0.3652   0.3731   0.3747   0.3801   0.3925
  0.4001   0.4064   0.4088   0.4121   0.4234   0.4290   0.4362   0.4415
  0.4598   0.4671   0.4820   0.4847   0.4900   0.4954   0.5050   0.5087
  0.5141   0.5208   0.5281   0.5334   0.5362   0.5542   0.5676   0.5743
  0.5794   0.5900   0.6023   0.6089   0.6203   0.6238   0.6309   0.6422
  0.6501   0.6623   0.6744   0.6796   0.6864   0.6933   0.7020   0.7156
  0.7226   0.7296   0.7299   0.7386   0.7464   0.7732   0.7790   0.7832
  0.7976   0.8021   0.8077   0.8143   0.8302   0.8334   0.8442   0.8555
  0.8607   0.8888   0.8963   0.9032   0.9280   0.9384   0.9450   0.9696
  0.9906   1.0058   1.0145   1.0216   1.0312   1.0362   1.0490   1.0753
  1.1101   1.1260   1.1374   1.1389   1.1728   1.1965   1.2066   1.2243
  1.2386   1.2526   1.2744   1.2854   1.2940   1.3003   1.3187   1.3354
  1.3405   1.3492   1.3721   1.3962   1.4040   1.4164   1.4347   1.4529
  1.4692   1.4906   1.5133   1.5302   1.5538   1.5769   1.5884   1.6191
  1.6235   1.6405   1.6502   1.6844   1.7392   1.7562   1.7916   1.8426
  1.8566   1.8612   1.8909   1.8985   1.9279   1.9738   1.9989   2.0163
  2.0571   2.0753   2.0916   2.1082   2.1129   2.1480   2.1752   2.2202
  2.2595   2.2699   2.3200   2.3356   2.3599   2.3798   2.4122   2.4433
  2.4597   2.4667   2.4971   2.5398   2.5620   2.6016   2.7738   2.7955
  2.8114   2.8394   2.8588   2.9101   2.9299   2.9579   2.9826   3.0083
  3.0209   3.0329   3.0567   3.0804   3.1088   3.1180   3.1548   3.1719
  3.1912   3.2407   3.2621   3.2689   3.2746   3.3054   3.3267   3.3364
  3.3630   3.3788   3.3893   3.4130   3.4334   3.4458   3.4684   3.4943
  3.5213   3.5423   3.5588   3.5754   3.5811   3.5889   3.6036   3.6203
  3.6387   3.6486   3.6544   3.6672   3.7621   3.7800   3.7885   3.8084
  3.8701   3.9056   3.9087   3.9426   3.9592   4.0128   4.0253   4.0456
  4.0742   4.1173   4.1265   4.2035   4.2357   4.2400   4.2657   4.3033
  4.3346   4.3588   4.3751   4.4270   4.4322   4.4591   4.4632   4.5305
  4.5629   4.5965   4.6524   4.7079   4.7485   4.7630   4.8527   4.8908
  4.9534   4.9731   5.0402   5.0481   5.0768   5.0911   5.1263   5.1667
  5.2509   5.2585   5.2952   5.3272   5.3344   5.4216   5.4544   5.4636
  5.4849   5.5479   5.5695   5.5932   5.6132   5.6530   5.6573   5.6932
  5.7139   5.7270   5.7497   5.7631   5.8156   5.8568   5.9005   5.9613
  5.9765   5.9941   6.0068   6.0490   6.0785   6.2173   6.2567   6.2783
  6.3068   6.3456   6.4664   6.4757   6.5937   6.6168   6.7199   6.7326
  6.7552   6.8030   6.8112   6.8343   6.8808   6.8943   6.9204   6.9677
  6.9988   7.0166   7.1138   7.1171   7.1785   7.2790   7.4106   7.4608
  7.4797   7.5879   7.6328   7.6931   7.8375  14.8497  23.5315  23.7008
 24.0096  44.1007  44.3788  44.3973  44.5795
 --------------------------------------------------------------
 
          Ground-State Mulliken Net Atomic Charges

     Atom                 Charge (a.u.)
  ----------------------------------------
      1 C                     0.119783
      2 C                     0.144741
      3 O                    -0.259133
      4 C                     0.791936
      5 O                    -0.539279
      6 O                    -0.704781
      7 O                    -0.830011
      8 Li                    0.891694
      9 H                     0.105630
     10 H                     0.118497
     11 H                     0.042713
     12 H                     0.056560
     13 H                     0.061651
  ----------------------------------------
  Sum of atomic charges =     0.000000

  Building new vdw surfaces
         Merz-Kollman RESP Net Atomic Charges

     Atom                 Charge (a.u.)
  ----------------------------------------
      1 C                     0.309096
      2 C                     0.097668
      3 O                    -0.441971
      4 C                     0.943415
      5 O                    -0.714469
      6 O                    -0.716303
      7 O                    -1.205095
      8 Li                    0.890522
      9 H                     0.111872
     10 H                     0.111872
     11 H                     0.135363
     12 H                     0.135363
     13 H                     0.342666
  ----------------------------------------
  Sum of atomic charges =     0.000000

  Related Dipole Moment =    13.9306 (X 11.7403 Y  1.7773 Z -7.2847)

 -----------------------------------------------------------------
                    Cartesian Multipole Moments
 -----------------------------------------------------------------
    Charge (ESU x 10^10)
                -0.0000
    Dipole Moment (Debye)
         X      11.8956      Y       1.9344      Z      -7.3894
       Tot      14.1368
    Quadrupole Moments (Debye-Ang)
        XX     -65.7429     XY       1.0513     YY     -41.3179
        XZ     -15.7139     YZ      -9.1647     ZZ     -28.1513
    Octopole Moments (Debye-Ang^2)
       XXX     195.8531    XXY     -19.6127    XYY      15.6817
       YYY     -94.9955    XXZ     -36.1209    XYZ     -28.0412
       YYZ     -10.0838    XZZ      46.7222    YZZ     -14.6074
       ZZZ     -12.6177
    Hexadecapole Moments (Debye-Ang^3)
      XXXX   -1222.9329   XXXY     -87.9677   XXYY    -185.8284
      XYYY    -112.3418   YYYY    -316.0865   XXXZ     -86.6963
      XXYZ     -35.1758   XYYZ     -29.6477   YYYZ     -20.7312
      XXZZ     -81.8438   XYZZ      14.0635   YYZZ     -57.0524
      XZZZ     -77.5581   YZZZ     -45.0862   ZZZZ    -137.5368
 -----------------------------------------------------------------
 Calculating analytic gradient of the SCF energy
 Gradient of CDS energy
            1           2           3           4           5           6
    1   0.0000810  -0.0000110  -0.0007634   0.0005266  -0.0001218   0.0001855
    2  -0.0001749   0.0002994  -0.0003613   0.0003184   0.0000336  -0.0000814
    3  -0.0008956   0.0012484   0.0000051   0.0005374  -0.0000234  -0.0006621
            7           8           9          10          11          12
    1   0.0005198   0.0000261  -0.0000796  -0.0000500  -0.0001053  -0.0000824
    2   0.0001785   0.0000073   0.0000655  -0.0000676  -0.0000203  -0.0001492
    3  -0.0000389   0.0000185   0.0001413   0.0001455  -0.0002750  -0.0002562
           13
    1  -0.0001257
    2  -0.0000481
    3   0.0000551
 Gradient of SCF Energy
            1           2           3           4           5           6
    1  -0.0052233   0.0000356   0.0000596   0.0015370  -0.0008758  -0.0009551
    2  -0.0001926   0.0004265   0.0010519  -0.0012938   0.0007401   0.0014963
    3   0.0035561   0.0021257   0.0030623  -0.0081804   0.0039068   0.0073145
            7           8           9          10          11          12
    1  -0.0140345   0.0025741   0.0023157   0.0034819   0.0014554   0.0040154
    2  -0.0051592  -0.0007964  -0.0021737   0.0018897   0.0011749  -0.0008682
    3  -0.0021662  -0.0068214  -0.0024659  -0.0026545  -0.0009698  -0.0007035
           13
    1   0.0056140
    2   0.0037045
    3   0.0039963
 Max gradient component =       1.403E-02
 RMS gradient           =       3.933E-03
 Computing fast CPCM-SWIG gradient
 Updating gradient with PCM contributions...
 -- total gradient after adding PCM contribution --
---------------------------------------------------
  Atom         X              Y              Z     
---------------------------------------------------
   1       0.000150      -0.000375       0.000312
   2      -0.000018       0.000061       0.000014
   3      -0.000084      -0.000019      -0.000004
   4      -0.000068      -0.000076      -0.000182
   5       0.000111       0.000080       0.000020
   6       0.000052       0.000027       0.000017
   7       0.000085       0.000027      -0.000030
   8      -0.000016       0.000003       0.000024
   9      -0.000040       0.000048       0.000000
  10      -0.000175       0.000210      -0.000197
  11      -0.000004       0.000006      -0.000004
  12      -0.000001       0.000012       0.000026
  13       0.000009      -0.000006       0.000002
---------------------------------------------------
 Number of fixed atoms: 0
 Gradient time:  CPU 548.58 s  wall 23.66 s
 ----------------------------------------------------------------
             Standard Nuclear Orientation (Angstroms)
    I     Atom           X                Y                Z
 ----------------------------------------------------------------
    1      C      -1.1499248525     0.2900793983    -0.8067383679
    2      C      -1.1119454191     0.5818973472     0.6789568808
    3      O       0.1671010725     1.2378939996     0.9861361818
    4      C       0.9399286687     1.2746740154    -0.0697996354
    5      O       0.4229825921     0.7676701635    -1.1572760136
    6      O       2.0785262938     1.7499376605    -0.0734846796
    7      O      -3.1764417702    -0.2829043757    -0.2759258599
    8      Li      2.1957983311     1.3285830755    -1.9405584801
    9      H      -1.0812768856    -0.7350347064    -1.1310686469
   10      H      -1.6781742438     0.9723208499    -1.4506722591
   11      H      -1.1530609306    -0.3258214598     1.2733164427
   12      H      -1.8954643540     1.2709228611     0.9748429659
   13      H      -3.4321885025    -0.9002288292    -0.9667185286
 ----------------------------------------------------------------
 Nuclear Repulsion Energy =         341.02901452 hartrees
 There are       29 alpha and       29 beta electrons
 Discretize the solute cavity surface with Lebedev spheres
	Using 110 Lebedev grid points for each H atom
	Using 194 Lebedev grid points for other atoms
	Atomic van der Waals radii will be scaled by 1.20
 Remove points where switching function is < 1.0e-08
 Keep 854 surface tesserae and discard 1248 interior tesserae
 Molecular Surface Area = 180.716 Angst**2

                       Distance Matrix (Angstroms)
             C (  1)   C (  2)   O (  3)   C (  4)   O (  5)   O (  6)
   C (  2)  1.514560
   O (  3)  2.418121  1.469915
   C (  4)  2.424870  2.291454  1.309051
   O (  5)  1.680776  2.400472  2.209254  1.306480
   O (  6)  3.618252  3.479885  2.244667  1.233813  2.209135
   O (  7)  2.171829  2.433481  3.883929  4.406024  3.851797  5.638095
   Li(  8)  3.682106  4.284923  3.562215  2.253853  2.017679  1.917618
   H (  9)  1.077386  2.238625  3.151738  3.041462  2.126407  4.156673
   H ( 10)  1.076639  2.237938  3.068160  2.975347  2.131390  4.076044
   H ( 11)  2.169325  1.085775  2.066520  2.957389  3.096355  4.070111
   H ( 12)  2.166083  1.084531  2.062861  3.021712  3.189732  4.137759
   H ( 13)  2.578983  3.207565  4.619534  4.964884  4.204824  6.179743
             O (  7)   Li(  8)   H (  9)   H ( 10)   H ( 11)   H ( 12)
   Li(  8)  5.850543
   H (  9)  2.307684  3.956389
   H ( 10)  2.280444  3.921043  1.836708
   H ( 11)  2.548738  4.927566  2.440016  3.062847
   H ( 12)  2.370592  5.024074  3.020204  2.453467  1.786013
   H ( 13)  0.961088  6.131085  2.362432  2.610981  3.246864  3.293187

 
 Requested basis set is def2-TZVPPD
 There are 140 shells and 378 basis functions
 A cutoff of  1.0D-14 yielded   9258 shell pairs
 There are     68032 function pairs (     86229 Cartesian)
 Smallest overlap matrix eigenvalue = 4.06E-06
 Guess MOs from SCF MO coefficient file

 -----------------------------------------------------------------------
  General SCF calculation program by
  Eric Jon Sundstrom, Paul Horn, Yuezhi Mao, Dmitri Zuev, Alec White,
  David Stuck, Shaama M.S., Shane Yost, Joonho Lee, David Small,
  Daniel Levine, Susi Lehtola, Hugh Burton, Evgeny Epifanovsky,
  Bang C. Huynh
 -----------------------------------------------------------------------
 Exchange:     0.1670 Hartree-Fock + 1.0000 wB97X-V + LR-HF
 Correlation:  1.0000 wB97X-V
 Using SG-3 standard quadrature grid
 Nonlocal Correlation:  VV10 with C = 0.0100 and b = 6.00 and scale = 1.00000
 Grid used for NLC:  SG-1 standard quadrature
 
 Citation of the SMD model:
 Marenich, A.V.; Cramer, C.J.; Truhlar, D.G.
 J. Phys. Chem. B 2009, 113, 6378-6396.
 iSolventCode=           0
 Solvent: other                                                           
 
 vradii
            1           2           3           4           5           6
    1   1.8500000   1.8500000   2.2940000   1.8500000   2.2940000   2.2940000
            7           8           9          10          11          12
    1   2.2940000   2.1476001   1.2000000   1.2000000   1.2000000   1.2000000
           13
    1   1.2000000
 using 40 threads for integral computing
 -------------------------------------------------------
 OpenMP Integral computing Module                
 Release: version 1.0, May 2013, Q-Chem Inc. Pittsburgh 
 -------------------------------------------------------
 using 40 threads for integral computing
 -------------------------------------------------------
 OpenMP Integral computing Module                
 Release: version 1.0, May 2013, Q-Chem Inc. Pittsburgh 
 -------------------------------------------------------
 -------------------------------------------------------
 OpenMP BLAS3 based DFT computing Module                
 Release: version 1.0, May 2013, Q-Chem Inc. Pittsburgh 
 -------------------------------------------------------
 -------------------------------------------------------
 OpenMP BLAS3 based DFT computing Module                
 Release: version 1.0, May 2013, Q-Chem Inc. Pittsburgh 
 -------------------------------------------------------
 -------------------------------------------------------
 OpenMP BLAS3 based DFT computing Module                
 Release: version 1.0, May 2013, Q-Chem Inc. Pittsburgh 
 -------------------------------------------------------
 A restricted SCF calculation will be
 performed using Roothaan-Hall, DIIS
 SCF converges when DIIS error is below 1.0e-08
 ---------------------------------------
  Cycle       Energy         DIIS error
 ---------------------------------------
    1    -426.1197748323      3.08e-04  Roothaan Step
 ---------------------------------------
  Cycle       Energy         DIIS error
 ---------------------------------------
    1    -425.7976311589      3.73e-04  
    2    -425.7992405568      4.48e-04  
    3    -425.8017411340      6.43e-05  
    4    -425.8018679499      2.44e-05  
    5    -425.8018974136      1.50e-05  
    6    -425.8019041424      5.97e-06  
    7    -425.8019057667      2.33e-06  
    8    -425.8019060175      6.50e-07  
    9    -425.8019060471      1.74e-07  
   10    -425.8019060485      8.41e-08  
   11    -425.8019060487      3.65e-08  
   12    -425.8019060487      1.26e-08  
   13    -425.8019060487      2.80e-09  Convergence criterion met
 ---------------------------------------
 SCF time:   CPU 2337.48s  wall 82.00s 
(3)  G-ENP(liq) elect-nuc-pol free energy of system     -425.801906049 a.u.
(4)  G-CDS(liq) cavity-dispersion-solvent structure 
     free energy                                               -3.1339 kcal/mol
(6)  G-S(liq) free energy of system                     -425.806900273 a.u.
 SCF   energy in the final basis set =     -425.8019060487
 Total energy in the final basis set =     -425.8069002731
 
 --------------------------------------------------------------
 
                    Orbital Energies (a.u.)
 --------------------------------------------------------------
 
 Alpha MOs
 -- Occupied --
-19.2758 -19.2584 -19.2181 -19.0874 -10.4589 -10.3424 -10.3303  -2.1374
 -1.2982  -1.1857  -1.1585  -0.9741  -0.8973  -0.7929  -0.7121  -0.6510
 -0.6360  -0.6124  -0.5678  -0.5563  -0.5291  -0.5008  -0.4870  -0.4391
 -0.4376  -0.4298  -0.4192  -0.3035  -0.3003
 -- Virtual --
  0.0249   0.0436   0.0449   0.0475   0.0751   0.0838   0.1053   0.1091
  0.1135   0.1148   0.1257   0.1288   0.1322   0.1379   0.1441   0.1467
  0.1598   0.1609   0.1691   0.1712   0.1806   0.2027   0.2097   0.2201
  0.2204   0.2377   0.2417   0.2503   0.2642   0.2698   0.2733   0.2845
  0.2895   0.2928   0.3062   0.3234   0.3286   0.3369   0.3427   0.3474
  0.3490   0.3590   0.3630   0.3652   0.3731   0.3747   0.3801   0.3925
  0.4001   0.4064   0.4088   0.4122   0.4234   0.4290   0.4362   0.4416
  0.4599   0.4671   0.4821   0.4847   0.4901   0.4954   0.5050   0.5087
  0.5141   0.5209   0.5281   0.5334   0.5361   0.5542   0.5677   0.5744
  0.5794   0.5901   0.6024   0.6089   0.6203   0.6238   0.6310   0.6423
  0.6502   0.6624   0.6744   0.6796   0.6865   0.6933   0.7020   0.7157
  0.7226   0.7297   0.7300   0.7386   0.7465   0.7734   0.7790   0.7833
  0.7975   0.8023   0.8078   0.8144   0.8303   0.8335   0.8443   0.8555
  0.8608   0.8888   0.8962   0.9032   0.9279   0.9384   0.9449   0.9697
  0.9909   1.0057   1.0145   1.0216   1.0313   1.0362   1.0491   1.0754
  1.1102   1.1260   1.1375   1.1388   1.1727   1.1967   1.2066   1.2244
  1.2387   1.2526   1.2745   1.2855   1.2940   1.3004   1.3188   1.3355
  1.3406   1.3494   1.3720   1.3962   1.4041   1.4165   1.4348   1.4530
  1.4692   1.4908   1.5133   1.5303   1.5538   1.5768   1.5882   1.6194
  1.6233   1.6403   1.6501   1.6846   1.7393   1.7561   1.7916   1.8428
  1.8567   1.8608   1.8907   1.8983   1.9281   1.9737   1.9987   2.0163
  2.0569   2.0752   2.0914   2.1083   2.1125   2.1480   2.1751   2.2202
  2.2596   2.2699   2.3197   2.3360   2.3600   2.3800   2.4124   2.4435
  2.4597   2.4669   2.4971   2.5391   2.5619   2.6015   2.7737   2.7955
  2.8111   2.8399   2.8587   2.9100   2.9300   2.9582   2.9828   3.0082
  3.0207   3.0329   3.0569   3.0805   3.1085   3.1180   3.1546   3.1718
  3.1911   3.2406   3.2618   3.2688   3.2748   3.3052   3.3265   3.3369
  3.3632   3.3796   3.3893   3.4134   3.4336   3.4461   3.4682   3.4945
  3.5213   3.5423   3.5586   3.5753   3.5810   3.5891   3.6036   3.6199
  3.6388   3.6487   3.6543   3.6674   3.7623   3.7804   3.7886   3.8080
  3.8706   3.9052   3.9087   3.9425   3.9591   4.0137   4.0255   4.0457
  4.0740   4.1174   4.1260   4.2035   4.2352   4.2400   4.2657   4.3031
  4.3346   4.3584   4.3753   4.4269   4.4322   4.4592   4.4633   4.5306
  4.5626   4.5966   4.6526   4.7079   4.7485   4.7633   4.8519   4.8908
  4.9540   4.9728   5.0402   5.0487   5.0768   5.0917   5.1267   5.1662
  5.2510   5.2586   5.2954   5.3271   5.3345   5.4217   5.4542   5.4639
  5.4861   5.5482   5.5698   5.5933   5.6136   5.6531   5.6575   5.6932
  5.7139   5.7267   5.7496   5.7631   5.8156   5.8567   5.9018   5.9597
  5.9774   5.9946   6.0070   6.0491   6.0787   6.2174   6.2568   6.2784
  6.3067   6.3458   6.4664   6.4759   6.5938   6.6169   6.7199   6.7327
  6.7555   6.8028   6.8115   6.8343   6.8807   6.8943   6.9202   6.9677
  6.9989   7.0169   7.1135   7.1172   7.1784   7.2791   7.4105   7.4609
  7.4796   7.5876   7.6323   7.6930   7.8373  14.8495  23.5318  23.7027
 24.0096  44.1006  44.3783  44.3974  44.5794
 --------------------------------------------------------------
 
          Ground-State Mulliken Net Atomic Charges

     Atom                 Charge (a.u.)
  ----------------------------------------
      1 C                     0.119676
      2 C                     0.143478
      3 O                    -0.259183
      4 C                     0.792134
      5 O                    -0.540894
      6 O                    -0.705047
      7 O                    -0.828831
      8 Li                    0.891650
      9 H                     0.106306
     10 H                     0.119318
     11 H                     0.042733
     12 H                     0.056690
     13 H                     0.061970
  ----------------------------------------
  Sum of atomic charges =     0.000000

  Building new vdw surfaces
         Merz-Kollman RESP Net Atomic Charges

     Atom                 Charge (a.u.)
  ----------------------------------------
      1 C                     0.311078
      2 C                     0.097134
      3 O                    -0.441928
      4 C                     0.943547
      5 O                    -0.715721
      6 O                    -0.716680
      7 O                    -1.203667
      8 Li                    0.890500
      9 H                     0.111277
     10 H                     0.111277
     11 H                     0.135228
     12 H                     0.135228
     13 H                     0.342727
  ----------------------------------------
  Sum of atomic charges =     0.000000

  Related Dipole Moment =    13.9033 (X 11.7104 Y  1.7682 Z -7.2829)

 -----------------------------------------------------------------
                    Cartesian Multipole Moments
 -----------------------------------------------------------------
    Charge (ESU x 10^10)
                -0.0000
    Dipole Moment (Debye)
         X      11.8647      Y       1.9248      Z      -7.3873
       Tot      14.1084
    Quadrupole Moments (Debye-Ang)
        XX     -65.6644     XY       1.0529     YY     -41.3222
        XZ     -15.6982     YZ      -9.1624     ZZ     -28.1580
    Octopole Moments (Debye-Ang^2)
       XXX     195.4963    XXY     -19.6691    XYY      15.6477
       YYY     -95.0282    XXZ     -36.1500    XYZ     -28.0345
       YYZ     -10.0833    XZZ      46.6971    YZZ     -14.6214
       ZZZ     -12.6115
    Hexadecapole Moments (Debye-Ang^3)
      XXXX   -1221.6545   XXXY     -87.8519   XXYY    -185.7876
      XYYY    -112.3456   YYYY    -316.1178   XXXZ     -86.6028
      XXYZ     -35.1775   XYYZ     -29.6383   YYYZ     -20.7300
      XXZZ     -81.7930   XYZZ      14.0622   YYZZ     -57.0636
      XZZZ     -77.5339   YZZZ     -45.0822   ZZZZ    -137.5614
 -----------------------------------------------------------------
 Calculating analytic gradient of the SCF energy
 Gradient of CDS energy
            1           2           3           4           5           6
    1   0.0000743  -0.0000105  -0.0007634   0.0005265  -0.0001221   0.0001855
    2  -0.0001676   0.0002990  -0.0003613   0.0003181   0.0000330  -0.0000814
    3  -0.0008939   0.0012486   0.0000051   0.0005375  -0.0000245  -0.0006621
            7           8           9          10          11          12
    1   0.0005196   0.0000261  -0.0000779  -0.0000457  -0.0001053  -0.0000813
    2   0.0001783   0.0000073   0.0000651  -0.0000716  -0.0000202  -0.0001505
    3  -0.0000389   0.0000185   0.0001410   0.0001418  -0.0002750  -0.0002535
           13
    1  -0.0001259
    2  -0.0000483
    3   0.0000555
 Gradient of SCF Energy
            1           2           3           4           5           6
    1  -0.0054866   0.0001366   0.0001913   0.0016664  -0.0011593  -0.0010676
    2   0.0005483   0.0003243   0.0010925  -0.0011427   0.0005715   0.0014309
    3   0.0029275   0.0021162   0.0030420  -0.0078119   0.0039270   0.0072290
            7           8           9          10          11          12
    1  -0.0141658   0.0026183   0.0024061   0.0038353   0.0014427   0.0039983
    2  -0.0052036  -0.0007852  -0.0022838   0.0014648   0.0011733  -0.0008724
    3  -0.0020939  -0.0068545  -0.0024499  -0.0022798  -0.0009567  -0.0007764
           13
    1   0.0055843
    2   0.0036819
    3   0.0039815
 Max gradient component =       1.417E-02
 RMS gradient           =       3.921E-03
 Computing fast CPCM-SWIG gradient
 Updating gradient with PCM contributions...
 -- total gradient after adding PCM contribution --
---------------------------------------------------
  Atom         X              Y              Z     
---------------------------------------------------
   1      -0.000104       0.000369      -0.000320
   2       0.000092      -0.000030       0.000009
   3       0.000036       0.000021      -0.000014
   4       0.000060       0.000065       0.000163
   5      -0.000156      -0.000081       0.000024
   6      -0.000045      -0.000029      -0.000061
   7      -0.000100      -0.000046       0.000024
   8       0.000026       0.000013      -0.000006
   9       0.000038      -0.000060       0.000019
  10       0.000177      -0.000226       0.000189
  11      -0.000008       0.000012       0.000008
  12      -0.000006       0.000000      -0.000044
  13      -0.000008      -0.000009       0.000009
---------------------------------------------------
 Number of fixed atoms: 0
 Gradient time:  CPU 546.23 s  wall 23.84 s
 ----------------------------------------------------------------
             Standard Nuclear Orientation (Angstroms)
    I     Atom           X                Y                Z
 ----------------------------------------------------------------
    1      C      -1.1489248525     0.2910793983    -0.8067383679
    2      C      -1.1119454191     0.5818973472     0.6789568808
    3      O       0.1671010725     1.2378939996     0.9861361818
    4      C       0.9399286687     1.2746740154    -0.0697996354
    5      O       0.4229825921     0.7676701635    -1.1572760136
    6      O       2.0785262938     1.7499376605    -0.0734846796
    7      O      -3.1764417702    -0.2829043757    -0.2759258599
    8      Li      2.1957983311     1.3285830755    -1.9405584801
    9      H      -1.0812768856    -0.7350347064    -1.1310686469
   10      H      -1.6781742438     0.9723208499    -1.4506722591
   11      H      -1.1530609306    -0.3258214598     1.2733164427
   12      H      -1.8954643540     1.2709228611     0.9748429659
   13      H      -3.4321885025    -0.9002288292    -0.9667185286
 ----------------------------------------------------------------
 Nuclear Repulsion Energy =         341.04408067 hartrees
 There are       29 alpha and       29 beta electrons
 Discretize the solute cavity surface with Lebedev spheres
	Using 110 Lebedev grid points for each H atom
	Using 194 Lebedev grid points for other atoms
	Atomic van der Waals radii will be scaled by 1.20
 Remove points where switching function is < 1.0e-08
 Keep 853 surface tesserae and discard 1249 interior tesserae
 Molecular Surface Area = 180.717 Angst**2

                       Distance Matrix (Angstroms)
             C (  1)   C (  2)   O (  3)   C (  4)   O (  5)   O (  6)
   C (  2)  1.514342
   O (  3)  2.417185  1.469915
   C (  4)  2.423602  2.291454  1.309051
   O (  5)  1.679556  2.400472  2.209254  1.306480
   O (  6)  3.616956  3.479885  2.244667  1.233813  2.209135
   O (  7)  2.173026  2.433481  3.883929  4.406024  3.851797  5.638095
   Li(  8)  3.680915  4.284923  3.562215  2.253853  2.017679  1.917618
   H (  9)  1.078275  2.238625  3.151738  3.041462  2.126407  4.156673
   H ( 10)  1.076497  2.237938  3.068160  2.975347  2.131390  4.076044
   H ( 11)  2.169611  1.085775  2.066520  2.957389  3.096355  4.070111
   H ( 12)  2.165975  1.084531  2.062861  3.021712  3.189732  4.137759
   H ( 13)  2.580330  3.207565  4.619534  4.964884  4.204824  6.179743
             O (  7)   Li(  8)   H (  9)   H ( 10)   H ( 11)   H ( 12)
   Li(  8)  5.850543
   H (  9)  2.307684  3.956389
   H ( 10)  2.280444  3.921043  1.836708
   H ( 11)  2.548738  4.927566  2.440016  3.062847
   H ( 12)  2.370592  5.024074  3.020204  2.453467  1.786013
   H ( 13)  0.961088  6.131085  2.362432  2.610981  3.246864  3.293187

 
 Requested basis set is def2-TZVPPD
 There are 140 shells and 378 basis functions
 A cutoff of  1.0D-14 yielded   9258 shell pairs
 There are     68032 function pairs (     86229 Cartesian)
 Smallest overlap matrix eigenvalue = 4.05E-06
 Guess MOs from SCF MO coefficient file

 -----------------------------------------------------------------------
  General SCF calculation program by
  Eric Jon Sundstrom, Paul Horn, Yuezhi Mao, Dmitri Zuev, Alec White,
  David Stuck, Shaama M.S., Shane Yost, Joonho Lee, David Small,
  Daniel Levine, Susi Lehtola, Hugh Burton, Evgeny Epifanovsky,
  Bang C. Huynh
 -----------------------------------------------------------------------
 Exchange:     0.1670 Hartree-Fock + 1.0000 wB97X-V + LR-HF
 Correlation:  1.0000 wB97X-V
 Using SG-3 standard quadrature grid
 Nonlocal Correlation:  VV10 with C = 0.0100 and b = 6.00 and scale = 1.00000
 Grid used for NLC:  SG-1 standard quadrature
 
 Citation of the SMD model:
 Marenich, A.V.; Cramer, C.J.; Truhlar, D.G.
 J. Phys. Chem. B 2009, 113, 6378-6396.
 iSolventCode=           0
 Solvent: other                                                           
 
 vradii
            1           2           3           4           5           6
    1   1.8500000   1.8500000   2.2940000   1.8500000   2.2940000   2.2940000
            7           8           9          10          11          12
    1   2.2940000   2.1476001   1.2000000   1.2000000   1.2000000   1.2000000
           13
    1   1.2000000
 using 40 threads for integral computing
 -------------------------------------------------------
 OpenMP Integral computing Module                
 Release: version 1.0, May 2013, Q-Chem Inc. Pittsburgh 
 -------------------------------------------------------
 using 40 threads for integral computing
 -------------------------------------------------------
 OpenMP Integral computing Module                
 Release: version 1.0, May 2013, Q-Chem Inc. Pittsburgh 
 -------------------------------------------------------
 -------------------------------------------------------
 OpenMP BLAS3 based DFT computing Module                
 Release: version 1.0, May 2013, Q-Chem Inc. Pittsburgh 
 -------------------------------------------------------
 -------------------------------------------------------
 OpenMP BLAS3 based DFT computing Module                
 Release: version 1.0, May 2013, Q-Chem Inc. Pittsburgh 
 -------------------------------------------------------
 -------------------------------------------------------
 OpenMP BLAS3 based DFT computing Module                
 Release: version 1.0, May 2013, Q-Chem Inc. Pittsburgh 
 -------------------------------------------------------
 A restricted SCF calculation will be
 performed using Roothaan-Hall, DIIS
 SCF converges when DIIS error is below 1.0e-08
 ---------------------------------------
  Cycle       Energy         DIIS error
 ---------------------------------------
    1    -426.1182914850      3.06e-04  Roothaan Step
 ---------------------------------------
  Cycle       Energy         DIIS error
 ---------------------------------------
    1    -425.7975901956      3.74e-04  
    2    -425.7992043403      4.51e-04  
    3    -425.8017354544      6.41e-05  
    4    -425.8018652549      2.46e-05  
    5    -425.8018958619      1.51e-05  
    6    -425.8019028119      6.05e-06  
    7    -425.8019044836      2.35e-06  
    8    -425.8019047369      6.52e-07  
    9    -425.8019047665      1.74e-07  
   10    -425.8019047679      8.50e-08  
   11    -425.8019047681      3.67e-08  
   12    -425.8019047681      1.26e-08  
   13    -425.8019047681      2.85e-09  Convergence criterion met
 ---------------------------------------
 SCF time:   CPU 2331.63s  wall 83.00s 
(3)  G-ENP(liq) elect-nuc-pol free energy of system     -425.801904768 a.u.
(4)  G-CDS(liq) cavity-dispersion-solvent structure 
     free energy                                               -3.1340 kcal/mol
(6)  G-S(liq) free energy of system                     -425.806899164 a.u.
 SCF   energy in the final basis set =     -425.8019047681
 Total energy in the final basis set =     -425.8068991643
 
 --------------------------------------------------------------
 
                    Orbital Energies (a.u.)
 --------------------------------------------------------------
 
 Alpha MOs
 -- Occupied --
-19.2759 -19.2588 -19.2182 -19.0872 -10.4591 -10.3424 -10.3303  -2.1375
 -1.2984  -1.1858  -1.1587  -0.9739  -0.8974  -0.7929  -0.7123  -0.6511
 -0.6361  -0.6125  -0.5678  -0.5564  -0.5291  -0.5010  -0.4871  -0.4390
 -0.4377  -0.4299  -0.4192  -0.3033  -0.3001
 -- Virtual --
  0.0249   0.0436   0.0449   0.0475   0.0751   0.0838   0.1053   0.1091
  0.1135   0.1148   0.1257   0.1288   0.1321   0.1379   0.1440   0.1467
  0.1599   0.1610   0.1690   0.1712   0.1806   0.2027   0.2097   0.2201
  0.2204   0.2377   0.2417   0.2503   0.2642   0.2698   0.2733   0.2845
  0.2895   0.2928   0.3062   0.3234   0.3285   0.3368   0.3426   0.3474
  0.3490   0.3590   0.3630   0.3652   0.3731   0.3747   0.3801   0.3925
  0.4001   0.4064   0.4087   0.4122   0.4234   0.4290   0.4362   0.4415
  0.4599   0.4671   0.4820   0.4846   0.4900   0.4954   0.5050   0.5087
  0.5141   0.5209   0.5280   0.5334   0.5362   0.5542   0.5676   0.5743
  0.5794   0.5900   0.6024   0.6089   0.6203   0.6238   0.6310   0.6422
  0.6501   0.6623   0.6744   0.6796   0.6864   0.6933   0.7020   0.7156
  0.7226   0.7297   0.7299   0.7386   0.7464   0.7734   0.7789   0.7833
  0.7975   0.8021   0.8078   0.8143   0.8302   0.8334   0.8442   0.8555
  0.8607   0.8888   0.8962   0.9032   0.9280   0.9384   0.9450   0.9696
  0.9907   1.0058   1.0145   1.0216   1.0312   1.0362   1.0490   1.0754
  1.1101   1.1261   1.1374   1.1389   1.1727   1.1966   1.2065   1.2243
  1.2386   1.2526   1.2744   1.2854   1.2940   1.3004   1.3188   1.3354
  1.3405   1.3494   1.3719   1.3962   1.4041   1.4165   1.4347   1.4529
  1.4692   1.4906   1.5133   1.5302   1.5538   1.5769   1.5883   1.6192
  1.6234   1.6404   1.6502   1.6846   1.7392   1.7561   1.7916   1.8429
  1.8565   1.8611   1.8908   1.8983   1.9280   1.9738   1.9988   2.0164
  2.0569   2.0755   2.0916   2.1082   2.1127   2.1480   2.1751   2.2202
  2.2594   2.2700   2.3199   2.3358   2.3599   2.3799   2.4123   2.4434
  2.4597   2.4668   2.4971   2.5396   2.5620   2.6016   2.7737   2.7956
  2.8113   2.8397   2.8585   2.9099   2.9300   2.9580   2.9827   3.0082
  3.0208   3.0331   3.0569   3.0804   3.1085   3.1182   3.1547   3.1720
  3.1912   3.2407   3.2620   3.2688   3.2748   3.3053   3.3265   3.3366
  3.3632   3.3791   3.3893   3.4131   3.4335   3.4459   3.4683   3.4943
  3.5213   3.5423   3.5588   3.5754   3.5811   3.5890   3.6036   3.6203
  3.6388   3.6484   3.6544   3.6674   3.7622   3.7798   3.7886   3.8085
  3.8705   3.9054   3.9086   3.9426   3.9593   4.0132   4.0253   4.0458
  4.0740   4.1174   4.1263   4.2035   4.2357   4.2401   4.2657   4.3034
  4.3344   4.3586   4.3753   4.4268   4.4323   4.4590   4.4634   4.5305
  4.5627   4.5965   4.6524   4.7079   4.7485   4.7631   4.8523   4.8908
  4.9535   4.9730   5.0402   5.0483   5.0766   5.0917   5.1262   5.1663
  5.2509   5.2584   5.2954   5.3272   5.3344   5.4217   5.4542   5.4636
  5.4856   5.5478   5.5696   5.5933   5.6134   5.6532   5.6574   5.6933
  5.7139   5.7268   5.7496   5.7631   5.8153   5.8569   5.9009   5.9608
  5.9766   5.9944   6.0069   6.0490   6.0785   6.2173   6.2567   6.2783
  6.3068   6.3457   6.4664   6.4758   6.5937   6.6168   6.7199   6.7326
  6.7552   6.8029   6.8114   6.8343   6.8808   6.8942   6.9203   6.9677
  6.9988   7.0167   7.1137   7.1171   7.1785   7.2791   7.4106   7.4608
  7.4796   7.5878   7.6326   7.6930   7.8374  14.8496  23.5316  23.7014
 24.0097  44.1006  44.3786  44.3974  44.5795
 --------------------------------------------------------------
 
          Ground-State Mulliken Net Atomic Charges

     Atom                 Charge (a.u.)
  ----------------------------------------
      1 C                     0.119903
      2 C                     0.144341
      3 O                    -0.259153
      4 C                     0.791975
      5 O                    -0.539803
      6 O                    -0.704877
      7 O                    -0.829629
      8 Li                    0.891673
      9 H                     0.105509
     10 H                     0.118965
     11 H                     0.042629
     12 H                     0.056674
     13 H                     0.061794
  ----------------------------------------
  Sum of atomic charges =     0.000000

  Building new vdw surfaces
         Merz-Kollman RESP Net Atomic Charges

     Atom                 Charge (a.u.)
  ----------------------------------------
      1 C                     0.314288
      2 C                     0.095391
      3 O                    -0.441455
      4 C                     0.943119
      5 O                    -0.715687
      6 O                    -0.716368
      7 O                    -1.204788
      8 Li                    0.890658
      9 H                     0.110463
     10 H                     0.110463
     11 H                     0.135625
     12 H                     0.135625
     13 H                     0.342667
  ----------------------------------------
  Sum of atomic charges =     0.000000

  Related Dipole Moment =    13.9214 (X 11.7299 Y  1.7759 Z -7.2843)

 -----------------------------------------------------------------
                    Cartesian Multipole Moments
 -----------------------------------------------------------------
    Charge (ESU x 10^10)
                 0.0000
    Dipole Moment (Debye)
         X      11.8846      Y       1.9327      Z      -7.3886
       Tot      14.1269
    Quadrupole Moments (Debye-Ang)
        XX     -65.7156     XY       1.0504     YY     -41.3192
        XZ     -15.7076     YZ      -9.1672     ZZ     -28.1524
    Octopole Moments (Debye-Ang^2)
       XXX     195.7378    XXY     -19.6365    XYY      15.6707
       YYY     -95.0192    XXZ     -36.1339    XYZ     -28.0343
       YYZ     -10.0846    XZZ      46.7125    YZZ     -14.6137
       ZZZ     -12.6167
    Hexadecapole Moments (Debye-Ang^3)
      XXXX   -1222.5375   XXXY     -87.9053   XXYY    -185.8183
      XYYY    -112.3259   YYYY    -316.1138   XXXZ     -86.6626
      XXYZ     -35.1806   XYYZ     -29.6432   YYYZ     -20.7246
      XXZZ     -81.8245   XYZZ      14.0649   YYZZ     -57.0594
      XZZZ     -77.5477   YZZZ     -45.0861   ZZZZ    -137.5344
 -----------------------------------------------------------------
 Calculating analytic gradient of the SCF energy
 Gradient of CDS energy
            1           2           3           4           5           6
    1   0.0000740  -0.0000105  -0.0007634   0.0005268  -0.0001219   0.0001855
    2  -0.0001625   0.0002985  -0.0003613   0.0003179   0.0000331  -0.0000814
    3  -0.0008952   0.0012483   0.0000051   0.0005376  -0.0000239  -0.0006621
            7           8           9          10          11          12
    1   0.0005198   0.0000261  -0.0000782  -0.0000461  -0.0001053  -0.0000811
    2   0.0001782   0.0000073   0.0000631  -0.0000731  -0.0000210  -0.0001506
    3  -0.0000389   0.0000185   0.0001425   0.0001416  -0.0002756  -0.0002531
           13
    1  -0.0001257
    2  -0.0000482
    3   0.0000552
 Gradient of SCF Energy
            1           2           3           4           5           6
    1  -0.0057272   0.0001283   0.0000984   0.0015698  -0.0009363  -0.0009992
    2   0.0014444   0.0002042   0.0010558  -0.0012495   0.0005922   0.0014816
    3   0.0033012   0.0020781   0.0030422  -0.0080507   0.0039055   0.0072802
            7           8           9          10          11          12
    1  -0.0140659   0.0025895   0.0024317   0.0038607   0.0014453   0.0040084
    2  -0.0052052  -0.0007934  -0.0028648   0.0013232   0.0011888  -0.0008709
    3  -0.0021486  -0.0068327  -0.0026197  -0.0022536  -0.0009160  -0.0007807
           13
    1   0.0055967
    2   0.0036935
    3   0.0039949
 Max gradient component =       1.407E-02
 RMS gradient           =       3.958E-03
 Computing fast CPCM-SWIG gradient
 Updating gradient with PCM contributions...
 -- total gradient after adding PCM contribution --
---------------------------------------------------
  Atom         X              Y              Z     
---------------------------------------------------
   1      -0.000351       0.001259       0.000059
   2       0.000072      -0.000146      -0.000036
   3      -0.000049      -0.000014      -0.000021
   4      -0.000035      -0.000037      -0.000060
   5       0.000055      -0.000059       0.000014
   6       0.000013       0.000016      -0.000015
   7       0.000037      -0.000028      -0.000018
   8      -0.000001       0.000004       0.000014
   9       0.000071      -0.000650      -0.000158
  10       0.000205      -0.000361       0.000214
  11      -0.000007       0.000023       0.000050
  12      -0.000005       0.000003      -0.000050
  13      -0.000006      -0.000010       0.000007
---------------------------------------------------
 Number of fixed atoms: 0
 Gradient time:  CPU 547.33 s  wall 23.99 s
 ----------------------------------------------------------------
             Standard Nuclear Orientation (Angstroms)
    I     Atom           X                Y                Z
 ----------------------------------------------------------------
    1      C      -1.1489248525     0.2890793983    -0.8067383679
    2      C      -1.1119454191     0.5818973472     0.6789568808
    3      O       0.1671010725     1.2378939996     0.9861361818
    4      C       0.9399286687     1.2746740154    -0.0697996354
    5      O       0.4229825921     0.7676701635    -1.1572760136
    6      O       2.0785262938     1.7499376605    -0.0734846796
    7      O      -3.1764417702    -0.2829043757    -0.2759258599
    8      Li      2.1957983311     1.3285830755    -1.9405584801
    9      H      -1.0812768856    -0.7350347064    -1.1310686469
   10      H      -1.6781742438     0.9723208499    -1.4506722591
   11      H      -1.1530609306    -0.3258214598     1.2733164427
   12      H      -1.8954643540     1.2709228611     0.9748429659
   13      H      -3.4321885025    -0.9002288292    -0.9667185286
 ----------------------------------------------------------------
 Nuclear Repulsion Energy =         341.03254508 hartrees
 There are       29 alpha and       29 beta electrons
 Discretize the solute cavity surface with Lebedev spheres
	Using 110 Lebedev grid points for each H atom
	Using 194 Lebedev grid points for other atoms
	Atomic van der Waals radii will be scaled by 1.20
 Remove points where switching function is < 1.0e-08
 Keep 854 surface tesserae and discard 1248 interior tesserae
 Molecular Surface Area = 180.713 Angst**2

                       Distance Matrix (Angstroms)
             C (  1)   C (  2)   O (  3)   C (  4)   O (  5)   O (  6)
   C (  2)  1.514728
   O (  3)  2.417969  1.469915
   C (  4)  2.424414  2.291454  1.309051
   O (  5)  1.680125  2.400472  2.209254  1.306480
   O (  6)  3.617763  3.479885  2.244667  1.233813  2.209135
   O (  7)  2.172499  2.433481  3.883929  4.406024  3.851797  5.638095
   Li(  8)  3.681479  4.284923  3.562215  2.253853  2.017679  1.917618
   H (  9)  1.076372  2.238625  3.151738  3.041462  2.126407  4.156673
   H ( 10)  1.077764  2.237938  3.068160  2.975347  2.131390  4.076044
   H ( 11)  2.169043  1.085775  2.066520  2.957389  3.096355  4.070111
   H ( 12)  2.166880  1.084531  2.062861  3.021712  3.189732  4.137759
   H ( 13)  2.579407  3.207565  4.619534  4.964884  4.204824  6.179743
             O (  7)   Li(  8)   H (  9)   H ( 10)   H ( 11)   H ( 12)
   Li(  8)  5.850543
   H (  9)  2.307684  3.956389
   H ( 10)  2.280444  3.921043  1.836708
   H ( 11)  2.548738  4.927566  2.440016  3.062847
   H ( 12)  2.370592  5.024074  3.020204  2.453467  1.786013
   H ( 13)  0.961088  6.131085  2.362432  2.610981  3.246864  3.293187

 
 Requested basis set is def2-TZVPPD
 There are 140 shells and 378 basis functions
 A cutoff of  1.0D-14 yielded   9258 shell pairs
 There are     68032 function pairs (     86229 Cartesian)
 Smallest overlap matrix eigenvalue = 4.06E-06
 Guess MOs from SCF MO coefficient file

 -----------------------------------------------------------------------
  General SCF calculation program by
  Eric Jon Sundstrom, Paul Horn, Yuezhi Mao, Dmitri Zuev, Alec White,
  David Stuck, Shaama M.S., Shane Yost, Joonho Lee, David Small,
  Daniel Levine, Susi Lehtola, Hugh Burton, Evgeny Epifanovsky,
  Bang C. Huynh
 -----------------------------------------------------------------------
 Exchange:     0.1670 Hartree-Fock + 1.0000 wB97X-V + LR-HF
 Correlation:  1.0000 wB97X-V
 Using SG-3 standard quadrature grid
 Nonlocal Correlation:  VV10 with C = 0.0100 and b = 6.00 and scale = 1.00000
 Grid used for NLC:  SG-1 standard quadrature
 
 Citation of the SMD model:
 Marenich, A.V.; Cramer, C.J.; Truhlar, D.G.
 J. Phys. Chem. B 2009, 113, 6378-6396.
 iSolventCode=           0
 Solvent: other                                                           
 
 vradii
            1           2           3           4           5           6
    1   1.8500000   1.8500000   2.2940000   1.8500000   2.2940000   2.2940000
            7           8           9          10          11          12
    1   2.2940000   2.1476001   1.2000000   1.2000000   1.2000000   1.2000000
           13
    1   1.2000000
 using 40 threads for integral computing
 -------------------------------------------------------
 OpenMP Integral computing Module                
 Release: version 1.0, May 2013, Q-Chem Inc. Pittsburgh 
 -------------------------------------------------------
 using 40 threads for integral computing
 -------------------------------------------------------
 OpenMP Integral computing Module                
 Release: version 1.0, May 2013, Q-Chem Inc. Pittsburgh 
 -------------------------------------------------------
 -------------------------------------------------------
 OpenMP BLAS3 based DFT computing Module                
 Release: version 1.0, May 2013, Q-Chem Inc. Pittsburgh 
 -------------------------------------------------------
 -------------------------------------------------------
 OpenMP BLAS3 based DFT computing Module                
 Release: version 1.0, May 2013, Q-Chem Inc. Pittsburgh 
 -------------------------------------------------------
 -------------------------------------------------------
 OpenMP BLAS3 based DFT computing Module                
 Release: version 1.0, May 2013, Q-Chem Inc. Pittsburgh 
 -------------------------------------------------------
 A restricted SCF calculation will be
 performed using Roothaan-Hall, DIIS
 SCF converges when DIIS error is below 1.0e-08
 ---------------------------------------
  Cycle       Energy         DIIS error
 ---------------------------------------
    1    -426.1192576486      3.08e-04  Roothaan Step
 ---------------------------------------
  Cycle       Energy         DIIS error
 ---------------------------------------
    1    -425.7976115358      3.74e-04  
    2    -425.7992234678      4.49e-04  
    3    -425.8017386329      6.42e-05  
    4    -425.8018667167      2.45e-05  
    5    -425.8018966550      1.50e-05  
    6    -425.8019034726      6.00e-06  
    7    -425.8019051154      2.34e-06  
    8    -425.8019053675      6.51e-07  
    9    -425.8019053971      1.74e-07  
   10    -425.8019053985      8.43e-08  
   11    -425.8019053987      3.66e-08  
   12    -425.8019053987      1.26e-08  
   13    -425.8019053987      2.81e-09  Convergence criterion met
 ---------------------------------------
 SCF time:   CPU 2339.98s  wall 82.00s 
(3)  G-ENP(liq) elect-nuc-pol free energy of system     -425.801905399 a.u.
(4)  G-CDS(liq) cavity-dispersion-solvent structure 
     free energy                                               -3.1336 kcal/mol
(6)  G-S(liq) free energy of system                     -425.806899148 a.u.
 SCF   energy in the final basis set =     -425.8019053987
 Total energy in the final basis set =     -425.8068991477
 
 --------------------------------------------------------------
 
                    Orbital Energies (a.u.)
 --------------------------------------------------------------
 
 Alpha MOs
 -- Occupied --
-19.2759 -19.2586 -19.2181 -19.0873 -10.4590 -10.3424 -10.3303  -2.1375
 -1.2983  -1.1858  -1.1586  -0.9740  -0.8973  -0.7929  -0.7122  -0.6511
 -0.6361  -0.6125  -0.5678  -0.5564  -0.5291  -0.5009  -0.4871  -0.4390
 -0.4376  -0.4299  -0.4192  -0.3034  -0.3002
 -- Virtual --
  0.0249   0.0436   0.0449   0.0475   0.0751   0.0838   0.1053   0.1091
  0.1135   0.1148   0.1257   0.1288   0.1321   0.1379   0.1441   0.1467
  0.1599   0.1609   0.1690   0.1712   0.1806   0.2027   0.2097   0.2201
  0.2204   0.2377   0.2417   0.2503   0.2642   0.2698   0.2733   0.2845
  0.2895   0.2928   0.3062   0.3234   0.3285   0.3369   0.3426   0.3474
  0.3490   0.3590   0.3630   0.3652   0.3731   0.3748   0.3801   0.3925
  0.4001   0.4064   0.4088   0.4121   0.4234   0.4290   0.4362   0.4416
  0.4599   0.4671   0.4820   0.4847   0.4901   0.4954   0.5050   0.5087
  0.5141   0.5208   0.5281   0.5334   0.5361   0.5541   0.5677   0.5743
  0.5794   0.5901   0.6024   0.6089   0.6203   0.6238   0.6309   0.6423
  0.6502   0.6623   0.6744   0.6796   0.6864   0.6933   0.7020   0.7157
  0.7226   0.7297   0.7300   0.7386   0.7464   0.7732   0.7790   0.7832
  0.7976   0.8022   0.8077   0.8144   0.8303   0.8334   0.8443   0.8555
  0.8607   0.8888   0.8963   0.9032   0.9279   0.9384   0.9450   0.9697
  0.9908   1.0058   1.0145   1.0216   1.0313   1.0361   1.0490   1.0754
  1.1102   1.1260   1.1375   1.1388   1.1727   1.1966   1.2066   1.2243
  1.2386   1.2526   1.2745   1.2854   1.2940   1.3004   1.3187   1.3355
  1.3406   1.3492   1.3721   1.3962   1.4040   1.4165   1.4347   1.4529
  1.4692   1.4907   1.5133   1.5303   1.5538   1.5768   1.5882   1.6193
  1.6234   1.6404   1.6501   1.6845   1.7393   1.7562   1.7916   1.8425
  1.8568   1.8609   1.8907   1.8985   1.9280   1.9738   1.9988   2.0161
[...]
 O         -0.272 -0.078  0.076   -0.069  0.216 -0.077   -0.003  0.003  0.018
 Li         0.047  0.007 -0.063   -0.050  0.088 -0.024   -0.043  0.089 -0.026
 H         -0.020  0.079  0.043   -0.102 -0.006 -0.104   -0.038 -0.032  0.024
 H          0.013 -0.101  0.059    0.092  0.094  0.087    0.056  0.002  0.002
 H         -0.026 -0.028 -0.103    0.287 -0.252 -0.041    0.009 -0.006  0.013
 H         -0.041 -0.029 -0.174   -0.014 -0.349  0.171    0.000 -0.014 -0.010
 H         -0.342 -0.087  0.112    0.107 -0.481  0.481   -0.292  0.759 -0.551
 TransDip   1.206  0.422 -0.078    0.055 -0.209  0.119   -0.076  0.260 -0.173

 Mode:                 4                      5                      6
 Frequency:       107.79                 174.02                 182.61
 Force Cnst:      0.0206                 0.0897                 0.1261
 Red. Mass:       3.0113                 5.0279                 6.4198
 IR Active:          YES                    YES                    YES
 IR Intens:       28.317                 32.719                 16.540
 Raman Active:       YES                    YES                    YES
               X      Y      Z        X      Y      Z        X      Y      Z
 C          0.038 -0.099  0.021   -0.046  0.136 -0.028   -0.041 -0.059 -0.103
 C         -0.074  0.164 -0.026    0.047 -0.081  0.008   -0.058 -0.035 -0.120
 O          0.022 -0.034  0.013   -0.132  0.311 -0.082   -0.076 -0.042 -0.111
 C          0.032 -0.074  0.021    0.014 -0.025  0.010   -0.044 -0.047 -0.083
 O          0.031 -0.076  0.023    0.024 -0.059  0.019    0.039 -0.040 -0.109
 O          0.034 -0.078  0.017    0.109 -0.257  0.070   -0.046 -0.010  0.052
 O         -0.003  0.031 -0.031    0.026 -0.103  0.028   -0.028  0.061  0.296
 Li        -0.184  0.385 -0.105   -0.109  0.216 -0.060    0.568  0.329  0.238
 H          0.109 -0.159  0.216   -0.169  0.188 -0.202   -0.042 -0.065 -0.090
 H          0.047 -0.251 -0.144    0.002  0.309  0.107   -0.027 -0.069 -0.128
 H         -0.320  0.283  0.132    0.442 -0.192 -0.125   -0.075 -0.023 -0.106
 H          0.026  0.372 -0.238   -0.140 -0.393  0.223   -0.057 -0.025 -0.145
 H          0.143 -0.317  0.226    0.017 -0.042 -0.023   -0.293  0.044  0.410
 TransDip  -0.093  0.143  0.004   -0.049  0.169 -0.050    0.108  0.050 -0.053

 Mode:                 7                      8                      9
 Frequency:       237.80                 294.32                 335.41
 Force Cnst:      0.2126                 0.1754                 0.5980
 Red. Mass:       6.3821                 3.4376                 9.0221
 IR Active:          YES                    YES                    YES
 IR Intens:      139.604                 17.692                 10.755
 Raman Active:       YES                    YES                    YES
               X      Y      Z        X      Y      Z        X      Y      Z
 C         -0.093  0.004  0.212   -0.097  0.287 -0.064    0.110  0.050  0.043
 C          0.074  0.059  0.213   -0.058  0.118 -0.036   -0.074 -0.026  0.074
 O          0.111  0.054  0.030    0.041 -0.089  0.026   -0.066  0.014  0.089
 C          0.008 -0.016 -0.071    0.023 -0.062  0.016   -0.186 -0.061  0.012
 O         -0.098 -0.025  0.022    0.062 -0.176  0.049   -0.277 -0.074  0.074
 O          0.029 -0.037 -0.152   -0.037  0.083 -0.034   -0.166 -0.129 -0.194
 O         -0.239 -0.120 -0.225    0.030 -0.125  0.033    0.500  0.163 -0.077
 Li         0.454  0.212  0.040    0.026 -0.012  0.006    0.215  0.097  0.008
 H         -0.110 -0.002  0.237   -0.340  0.330 -0.218    0.004  0.034  0.067
 H         -0.125 -0.001  0.241    0.066  0.518  0.029    0.001  0.011  0.091
 H          0.120  0.075  0.249   -0.190  0.061 -0.140   -0.043 -0.033  0.062
 H          0.095  0.067  0.270    0.049  0.207  0.048   -0.085 -0.039  0.066
 H          0.116 -0.136 -0.343    0.296 -0.251  0.048    0.566  0.204 -0.136
 TransDip   0.331  0.144  0.114    0.016  0.132 -0.024    0.095  0.043  0.012

 Mode:                10                     11                     12
 Frequency:       474.47                 526.48                 582.98
 Force Cnst:      0.9475                 0.1924                 1.5782
 Red. Mass:       7.1434                 1.1782                 7.8814
 IR Active:          YES                    YES                    YES
 IR Intens:      159.351                 91.385                 82.024
 Raman Active:       YES                    YES                    YES
               X      Y      Z        X      Y      Z        X      Y      Z
 C          0.044  0.015 -0.010    0.028 -0.009  0.013    0.182  0.129  0.185
 C          0.104  0.040 -0.006   -0.009 -0.021 -0.006    0.137  0.118  0.222
 O          0.114  0.024 -0.084   -0.013 -0.002 -0.021   -0.007 -0.049 -0.172
 C         -0.011 -0.028 -0.096   -0.007 -0.000 -0.009   -0.094 -0.095 -0.184
 O         -0.069 -0.047 -0.086    0.013  0.003 -0.032    0.008 -0.072 -0.295
 O         -0.005 -0.027 -0.105   -0.011 -0.000  0.030   -0.210  0.005  0.339
 O         -0.003 -0.001 -0.014   -0.058  0.025  0.055    0.068 -0.004 -0.056
 Li        -0.366  0.058  0.849   -0.002 -0.006 -0.022   -0.037 -0.049 -0.126
 H         -0.031 -0.003  0.032    0.032 -0.019  0.031   -0.060  0.105  0.242
 H         -0.029 -0.012  0.023    0.001 -0.030  0.011    0.020  0.118  0.314
 H          0.135  0.054  0.017    0.010 -0.017  0.001    0.066  0.134  0.256
 H          0.133  0.060  0.020   -0.005 -0.017 -0.012    0.120  0.126  0.192
 H          0.134  0.005 -0.071    0.923  0.077 -0.356   -0.329 -0.057  0.140
 TransDip  -0.120  0.039  0.384    0.285  0.014 -0.110    0.267  0.113  0.006

 Mode:                13                     14                     15
 Frequency:       705.37                 780.28                 813.59
 Force Cnst:      1.8360                 4.3435                 3.1398
 Red. Mass:       6.2631                12.1085                 8.0508
 IR Active:          YES                    YES                    YES
 IR Intens:       68.753                 26.795                 45.910
 Raman Active:       YES                    YES                    YES
               X      Y      Z        X      Y      Z        X      Y      Z
 C         -0.150 -0.089 -0.195    0.002 -0.009 -0.103    0.004 -0.035 -0.005
 C          0.339  0.118 -0.193    0.190  0.104  0.029    0.023 -0.036  0.006
 O          0.192  0.085  0.089    0.003  0.116  0.442    0.073 -0.121  0.059
 C         -0.043 -0.020  0.009   -0.235 -0.106  0.100   -0.276  0.635 -0.170
 O         -0.237 -0.085  0.079    0.407  0.107 -0.247    0.071 -0.155  0.029
 O         -0.101  0.013  0.201   -0.336 -0.184 -0.205    0.061 -0.186  0.051
 O         -0.011  0.003  0.004   -0.071 -0.019  0.019   -0.003 -0.003  0.001
 Li         0.044 -0.005 -0.095   -0.006 -0.002  0.007   -0.009  0.023 -0.008
 H         -0.147 -0.148 -0.034    0.233 -0.011 -0.048   -0.162  0.047 -0.297
 H         -0.220 -0.228 -0.294    0.198 -0.005 -0.260    0.089  0.225  0.199
 H          0.378  0.049 -0.300    0.116 -0.031 -0.182   -0.182  0.108  0.206
 H          0.297  0.009 -0.067   -0.001 -0.090 -0.028    0.073  0.138 -0.259
 H          0.131 -0.001 -0.047   -0.043 -0.030  0.017   -0.003 -0.008  0.005
 TransDip   0.191  0.031 -0.182   -0.152 -0.057  0.031   -0.098  0.186 -0.055

 Mode:                16                     17                     18
 Frequency:       852.64                 929.04                1079.80
 Force Cnst:      0.5056                 5.0193                 1.9757
 Red. Mass:       1.1805                 9.8701                 2.8759
 IR Active:          YES                    YES                    YES
 IR Intens:        1.265                 66.447                 66.709
 Raman Active:       YES                    YES                    YES
               X      Y      Z        X      Y      Z        X      Y      Z
 C         -0.007  0.062  0.006    0.007  0.025  0.144    0.001 -0.034 -0.154
 C         -0.036  0.053 -0.003    0.475  0.175 -0.100   -0.090 -0.002  0.148
 O         -0.005 -0.044 -0.009   -0.344 -0.221 -0.251    0.124  0.014 -0.147
 C         -0.016  0.052 -0.016   -0.059  0.004  0.066   -0.056 -0.026 -0.011
 O          0.017 -0.023  0.007    0.093  0.119  0.299    0.053  0.061  0.148
 O          0.014 -0.010 -0.002   -0.091 -0.077 -0.134   -0.115 -0.046  0.007
 O          0.003 -0.000 -0.001   -0.028 -0.003  0.010   -0.015 -0.003  0.010
 Li        -0.002  0.001  0.003    0.006  0.005  0.009    0.001 -0.003 -0.014
 H          0.172 -0.081  0.501    0.137  0.065  0.068    0.339  0.053 -0.400
 H         -0.032 -0.305 -0.363    0.151  0.130  0.146    0.288  0.022 -0.348
 H          0.221 -0.206 -0.376    0.139  0.172 -0.113    0.170  0.095  0.322
 H         -0.073 -0.183  0.448    0.308  0.068 -0.275    0.150  0.156  0.433
 H         -0.014  0.001  0.004    0.057 -0.035  0.007    0.014  0.016 -0.016
 TransDip   0.015  0.029  0.016    0.239  0.105  0.002   -0.238 -0.105 -0.025

 Mode:                19                     20                     21
 Frequency:      1122.86                1139.43                1171.14
 Force Cnst:      3.6199                 0.8860                 1.1057
 Red. Mass:       4.8729                 1.1583                 1.3682
 IR Active:          YES                    YES                    YES
 IR Intens:      187.621                  2.157                  3.034
 Raman Active:       YES                    YES                    YES
               X      Y      Z        X      Y      Z        X      Y      Z
 C          0.004 -0.062 -0.269    0.027 -0.077  0.026    0.030 -0.076  0.027
 C          0.117  0.123  0.285   -0.026  0.053 -0.019   -0.057  0.136 -0.038
 O         -0.227 -0.079  0.087    0.010 -0.012  0.003    0.012 -0.035  0.008
 C          0.056  0.031  0.026   -0.000 -0.002 -0.006    0.002 -0.005  0.000
 O         -0.075 -0.059 -0.112   -0.018  0.035 -0.004    0.005 -0.011  0.000
 O          0.162  0.062 -0.019   -0.000 -0.000  0.002   -0.000  0.002 -0.001
 O          0.005  0.005  0.009   -0.001 -0.005  0.002   -0.001  0.004 -0.000
 Li        -0.000  0.004  0.015   -0.001  0.001 -0.000   -0.000 -0.000  0.000
 H         -0.180 -0.052 -0.413   -0.588 -0.129  0.061    0.214  0.087 -0.465
 H         -0.021 -0.132 -0.357    0.663  0.295 -0.096   -0.292  0.070  0.453
 H          0.088  0.148  0.357    0.179 -0.016 -0.113    0.426  0.033 -0.168
 H          0.054  0.026  0.410   -0.131 -0.114  0.098   -0.313 -0.245  0.182
 H          0.101  0.011 -0.032    0.013 -0.012  0.003    0.004  0.006 -0.003
 TransDip   0.401  0.173  0.037    0.012 -0.045 -0.008   -0.018  0.051 -0.015

 Mode:                22                     23                     24
 Frequency:      1220.36                1254.12                1341.90
 Force Cnst:      1.1803                 1.0032                 1.5254
 Red. Mass:       1.3451                 1.0826                 1.4378
 IR Active:          YES                    YES                    YES
 IR Intens:       92.427                  4.432                 77.865
 Raman Active:       YES                    YES                    YES
               X      Y      Z        X      Y      Z        X      Y      Z
 C         -0.010  0.015  0.045   -0.025  0.061 -0.019   -0.021  0.007  0.039
 C          0.028  0.012  0.023   -0.003 -0.007  0.007   -0.023 -0.034 -0.107
 O         -0.018  0.007  0.052    0.018 -0.032 -0.001   -0.027 -0.011  0.014
 C          0.013 -0.028 -0.124    0.000 -0.004  0.003   -0.017  0.020  0.100
 O         -0.052 -0.017  0.017    0.005  0.001  0.006   -0.041 -0.035 -0.071
 O          0.022  0.014  0.016   -0.003  0.001 -0.001    0.022  0.007 -0.007
 O         -0.019 -0.003  0.010    0.002 -0.001  0.000   -0.008 -0.004  0.000
 Li        -0.005 -0.001  0.004    0.000 -0.000 -0.000    0.008  0.002 -0.006
 H          0.627  0.140 -0.218   -0.015 -0.003  0.198    0.446  0.033  0.083
 H          0.490  0.135 -0.239   -0.020 -0.077 -0.177    0.324  0.243  0.020
 H         -0.179 -0.111 -0.176    0.434  0.271  0.455    0.408  0.228  0.309
 H         -0.208 -0.143 -0.236   -0.419 -0.280 -0.440    0.379  0.251  0.266
 H         -0.010 -0.004  0.008    0.004 -0.001 -0.000   -0.036 -0.001  0.008
 TransDip   0.024 -0.066 -0.300   -0.057  0.034 -0.009   -0.035  0.062  0.273

 Mode:                25                     26                     27
 Frequency:      1465.63                1489.09                1504.27
 Force Cnst:      1.5644                 3.4027                 1.6798
 Red. Mass:       1.2361                 2.6045                 1.2599
 IR Active:          YES                    YES                    YES
 IR Intens:        8.279                251.079                 79.735
 Raman Active:       YES                    YES                    YES
               X      Y      Z        X      Y      Z        X      Y      Z
 C         -0.005 -0.025 -0.114   -0.050 -0.031 -0.054    0.005 -0.010 -0.052
 C          0.016  0.008 -0.011    0.025  0.038  0.133   -0.048 -0.010  0.066
 O         -0.004  0.003  0.017    0.065 -0.003 -0.118   -0.029 -0.004  0.031
 C          0.004 -0.016 -0.066   -0.011  0.069  0.273   -0.012 -0.028 -0.087
 O          0.006  0.011  0.032   -0.036 -0.038 -0.086    0.011  0.013  0.033
 O          0.001  0.002  0.006   -0.011 -0.011 -0.023    0.015  0.008  0.007
 O         -0.002  0.001  0.003   -0.001  0.000 -0.000   -0.000 -0.000  0.000
 Li        -0.003 -0.001  0.002    0.016  0.005 -0.008   -0.004 -0.002  0.001
 H          0.209 -0.212  0.528    0.301 -0.086  0.192    0.020 -0.090  0.203
 H         -0.033  0.460  0.425    0.142  0.308  0.148   -0.065  0.151  0.175
 H         -0.261  0.121  0.160   -0.139 -0.317 -0.424    0.546 -0.242 -0.267
 H         -0.108 -0.222  0.223   -0.268 -0.038 -0.469    0.226  0.484 -0.397
 H          0.012 -0.003  0.002   -0.000 -0.003  0.005    0.000 -0.002  0.002
 TransDip  -0.002 -0.029 -0.088    0.018  0.128  0.491   -0.032 -0.083 -0.272

 Mode:                28                     29                     30
 Frequency:      1716.77                3162.74                3229.53
 Force Cnst:     21.1542                 6.2412                 6.4819
 Red. Mass:      12.1821                 1.0590                 1.0548
 IR Active:          YES                    YES                    YES
 IR Intens:     1209.114                  7.938                  2.766
 Raman Active:       YES                    YES                    YES
               X      Y      Z        X      Y      Z        X      Y      Z
 C         -0.035 -0.016 -0.016   -0.001  0.001 -0.001   -0.024 -0.021 -0.057
 C         -0.050 -0.017  0.016   -0.039 -0.019  0.053    0.000  0.000  0.003
 O         -0.089 -0.023  0.059   -0.001 -0.000 -0.001   -0.000  0.000  0.000
 C          0.785  0.313 -0.056    0.002  0.000 -0.001    0.001  0.000 -0.000
 O         -0.059 -0.031 -0.026    0.000  0.000  0.000   -0.001 -0.000  0.001
 O         -0.409 -0.174 -0.011   -0.000 -0.000  0.000   -0.000  0.000  0.000
 O          0.006  0.003  0.001   -0.000 -0.000 -0.001   -0.000  0.000  0.001
 Li         0.010  0.014  0.036    0.000  0.000 -0.000    0.000  0.000 -0.000
 H          0.054 -0.028  0.022   -0.000 -0.012 -0.003   -0.048  0.683  0.208
 H          0.031  0.057  0.002    0.000 -0.001 -0.000    0.340 -0.446  0.411
 H          0.162 -0.027  0.036    0.018  0.649 -0.417   -0.001  0.005 -0.003
 H          0.064  0.140 -0.009    0.451 -0.411 -0.163   -0.001 -0.002  0.000
 H          0.013  0.002 -0.000    0.001  0.003  0.002    0.003 -0.000 -0.002
 TransDip   1.032  0.415 -0.049   -0.048 -0.024  0.072   -0.031 -0.021 -0.038

 Mode:                31                     32                     33
 Frequency:      3231.32                3341.34                3858.81
 Force Cnst:      6.8557                 7.4075                 9.3620
 Red. Mass:       1.1144                 1.1261                 1.0671
 IR Active:          YES                    YES                    YES
 IR Intens:        3.704                  0.369                  1.718
 Raman Active:       YES                    YES                    YES
               X      Y      Z        X      Y      Z        X      Y      Z
 C          0.002 -0.008  0.001    0.034 -0.096  0.019   -0.000 -0.000  0.000
 C         -0.045  0.086 -0.011    0.003 -0.006  0.001    0.000 -0.000 -0.000
 O          0.000 -0.001  0.000    0.000  0.000  0.000   -0.000  0.000  0.000
 C          0.000  0.000 -0.000    0.000  0.000  0.000   -0.000 -0.000 -0.000
 O          0.000  0.000 -0.000   -0.000  0.001 -0.000    0.000  0.000  0.000
 O         -0.000  0.000 -0.000    0.000 -0.000  0.000    0.000  0.000  0.000
 O          0.000 -0.000 -0.000   -0.000  0.001  0.000   -0.017 -0.040 -0.045
 Li        -0.000  0.000 -0.000   -0.000  0.000 -0.000   -0.000 -0.000  0.000
 H         -0.005  0.054  0.016   -0.042  0.657  0.206   -0.001  0.003  0.001
 H         -0.025  0.034 -0.031   -0.350  0.452 -0.425   -0.000  0.000 -0.001
 H         -0.023 -0.519  0.345    0.002  0.046 -0.034    0.000 -0.000  0.000
 H          0.555 -0.492 -0.213   -0.038  0.035  0.017   -0.004  0.004  0.002
 H          0.001  0.002  0.004    0.001 -0.002 -0.003    0.266  0.641  0.717
 TransDip  -0.019  0.059 -0.003   -0.013 -0.013 -0.006    0.014 -0.015 -0.037

 STANDARD THERMODYNAMIC QUANTITIES AT   298.15 K  AND     1.00 ATM

   This Molecule has  1 Imaginary Frequencies
   Zero point vibrational energy:       55.031 kcal/mol

   Atom    1 Element C  Has Mass   12.00000
   Atom    2 Element C  Has Mass   12.00000
   Atom    3 Element O  Has Mass   15.99491
   Atom    4 Element C  Has Mass   12.00000
   Atom    5 Element O  Has Mass   15.99491
   Atom    6 Element O  Has Mass   15.99491
   Atom    7 Element O  Has Mass   15.99491
   Atom    8 Element Li Has Mass    7.01600
   Atom    9 Element H  Has Mass    1.00783
   Atom   10 Element H  Has Mass    1.00783
   Atom   11 Element H  Has Mass    1.00783
   Atom   12 Element H  Has Mass    1.00783
   Atom   13 Element H  Has Mass    1.00783
   Molecular Mass:   112.034790 amu
   Principal axes and moments of inertia in amu*Bohr^2:
                             1           2           3
    Eigenvalues --      304.64431  1341.98203  1621.02278
          X               0.93649    -0.01843    -0.35021
          Y               0.34526     0.22362     0.91148
          Z              -0.06152     0.97450    -0.21578
   Rotational Symmetry Number is   1
   The Molecule is an Asymmetric Top
   Translational Enthalpy:        0.889 kcal/mol
   Rotational Enthalpy:           0.889 kcal/mol
   Vibrational Enthalpy:         58.731 kcal/mol
   gas constant (RT):             0.592 kcal/mol
   Translational Entropy:        40.057  cal/mol.K
   Rotational Entropy:           27.985  cal/mol.K
   Vibrational Entropy:          23.329  cal/mol.K

   Total Enthalpy:               61.101 kcal/mol
   Total Entropy:                91.370  cal/mol.K
Archival summary:
1\1\n0252.lr6\FREQ\ProcedureUnspecified\BasisUnspecified\43i15\ewcspott\FriAug1416:54:482020FriAug1416:54:482020\0\\#,FREQ,ProcedureUnspecified,BasisUnspecified,\\0,1\O\C,1,1.30648\O,2,1.23381,1,120.807\O,2,1.30905,1,115.273,3,179.821,0\C,4,1.46992,2,110.958,1,1.59176,0\H,5,1.08453,4,106.744,2,-126.005,0\H,5,1.08577,4,106.957,2,115.396,0\C,5,1.51453,4,108.194,2,-5.45868,0\H,8,1.07713,5,118.45,4,-98.3338,0\H,8,1.07732,5,118.498,4,109.883,0\Li,3,1.91762,2,88.5505,1,0.771691,0\O,8,2.17276,5,80.4415,4,-173.325,0\H,12,0.961088,8,104.011,5,-156.218,0\\\@

 Total job time:  8521.21s(wall), 231066.11s(cpu) 
 Fri Aug 14 16:54:48 2020

        *************************************************************
        *                                                           *
        *  Thank you very much for using Q-Chem.  Have a nice day.  *
        *                                                           *
        *************************************************************


