
Running Job 1 of 1 mol.qin
qchem mol.qin_101442.0 /tmp/scratch/ 0
/clusterfs/mp/software/qchem/exe/qcprog.exe_s mol.qin_101442.0 /tmp/scratch/
                  Welcome to Q-Chem
     A Quantum Leap Into The Future Of Chemistry


 Q-Chem 5.2, Q-Chem, Inc., Pleasanton, CA (2019)

 Yihan Shao,  Zhengting Gan,  E. Epifanovsky,  A. T. B. Gilbert,  M. Wormit,  
 J. Kussmann,  A. W. Lange,  A. Behn,  Jia Deng,  Xintian Feng,  D. Ghosh,  
 M. Goldey,  P. R. Horn,  L. D. Jacobson,  I. Kaliman,  T. Kus,  A. Landau,  
 Jie Liu,  E. I. Proynov,  R. M. Richard,  R. P. Steele,  E. J. Sundstrom,  
 H. L. Woodcock III,  P. M. Zimmerman,  D. Zuev,  B. Alam,  B. Albrecht,  
 E. Alguire,  S. A. Baeppler,  D. Barton,  Z. Benda,  Y. A. Bernard,  
 E. J. Berquist,  K. B. Bravaya,  H. Burton,  K. Carter-Fenk,  D. Casanova,  
 Chun-Min Chang,  Yunqing Chen,  A. Chien,  K. D. Closser,  M. P. Coons,  
 S. Coriani,  S. Dasgupta,  A. L. Dempwolff,  M. Diedenhofen,  Hainam Do,  
 R. G. Edgar,  Po-Tung Fang,  S. Faraji,  S. Fatehi,  Qingguo Feng,  
 J. Fosso-Tande,  J. Gayvert,  Qinghui Ge,  A. Ghysels,  G. Gidofalvi,  
 J. Gomes,  J. Gonthier,  A. Gunina,  D. Hait,  M. W. D. Hanson-Heine,  
 P. H. P. Harbach,  A. W. Hauser,  M. F. Herbst,  J. E. Herr,  
 E. G. Hohenstein,  Z. C. Holden,  Kerwin Hui,  B. C. Huynh,  T.-C. Jagau,  
 Hyunjun Ji,  B. Kaduk,  K. Khistyaev,  Jaehoon Kim,  P. Klunzinger,  K. Koh,  
 D. Kosenkov,  L. Koulias,  T. Kowalczyk,  C. M. Krauter,  A. Kunitsa,  
 Ka Un Lao,  A. Laurent,  K. V. Lawler,  Joonho Lee,  D. Lefrancois,  
 S. Lehtola,  D. S. Levine,  Yi-Pei Li,  You-Sheng Lin,  Fenglai Liu,  
 Kuan-Yu Liu,  E. Livshits,  M. Loipersberger,  A. Luenser,  P. Manohar,  
 E. Mansoor,  S. F. Manzer,  Shan-Ping Mao,  Yuezhi Mao,  N. Mardirossian,  
 A. V. Marenich,  T. Markovich,  L. A. Martinez-Martinez,  S. A. Maurer,  
 N. J. Mayhall,  S. C. McKenzie,  J.-M. Mewes,  P. Morgante,  A. F. Morrison,  
 J. W. Mullinax,  K. Nanda,  T. S. Nguyen-Beck,  R. Olivares-Amaya,  
 J. A. Parkhill,  S. K. Paul,  Zheng Pei,  T. M. Perrine,  F. Plasser,  
 P. Pokhilko,  S. Prager,  A. Prociuk,  E. Ramos,  B. Rana,  D. R. Rehn,  
 F. Rob,  M. Scheurer,  M. Schneider,  N. Sergueev,  S. M. Sharada,  
 S. Sharma,  D. W. Small,  T. Stauch,  C. J. Stein,  T. Stein,  Yu-Chuan Su,  
 S. P. Veccham,  A. J. W. Thom,  A. Tkatchenko,  T. Tsuchimochi,  
 N. M. Tubman,  L. Vogt,  M. L. Vidal,  O. Vydrov,  M. A. Watson,  J. Wenzel,  
 M. de Wergifosse,  T. A. Wesolowski,  A. White,  J. Witte,  A. Yamada,  
 Jun Yang,  K. Yao,  S. Yeganeh,  S. R. Yost,  Zhi-Qiang You,  A. Zech,  
 Igor Ying Zhang,  Xing Zhang,  Yan Zhao,  Ying Zhu,  B. R. Brooks,  
 G. K. L. Chan,  C. J. Cramer,  M. S. Gordon,  W. J. Hehre,  A. Klamt,  
 M. W. Schmidt,  C. D. Sherrill,  D. G. Truhlar,  A. Aspuru-Guzik,  R. Baer,  
 A. T. Bell,  N. A. Besley,  Jeng-Da Chai,  A. E. DePrince, III,  
 R. A. DiStasio Jr.,  A. Dreuw,  B. D. Dunietz,  T. R. Furlani,  
 Chao-Ping Hsu,  Yousung Jung,  Jing Kong,  D. S. Lambrecht,  WanZhen Liang,  
 C. Ochsenfeld,  V. A. Rassolov,  L. V. Slipchenko,  J. E. Subotnik,  
 T. Van Voorhis,  J. M. Herbert,  A. I. Krylov,  P. M. W. Gill,  M. Head-Gordon

 Contributors to earlier versions of Q-Chem not listed above: 
 R. D. Adamson,  B. Austin,  J. Baker,  G. J. O. Beran,  K. Brandhorst,  
 S. T. Brown,  E. F. C. Byrd,  A. K. Chakraborty,  C.-L. Cheng,  
 Siu Hung Chien,  D. M. Chipman,  D. L. Crittenden,  H. Dachsel,  
 R. J. Doerksen,  A. D. Dutoi,  L. Fusti-Molnar,  W. A. Goddard III,  
 A. Golubeva-Zadorozhnaya,  S. R. Gwaltney,  G. Hawkins,  A. Heyden,  
 S. Hirata,  G. Kedziora,  F. J. Keil,  C. Kelley,  Jihan Kim,  R. A. King,  
 R. Z. Khaliullin,  P. P. Korambath,  W. Kurlancheek,  A. M. Lee,  M. S. Lee,  
 S. V. Levchenko,  Ching Yeh Lin,  D. Liotard,  R. C. Lochan,  I. Lotan,  
 P. E. Maslen,  N. Nair,  D. P. O'Neill,  D. Neuhauser,  E. Neuscamman,  
 C. M. Oana,  R. Olson,  B. Peters,  R. Peverati,  P. A. Pieniazek,  
 Y. M. Rhee,  J. Ritchie,  M. A. Rohrdanz,  E. Rosta,  N. J. Russ,  
 H. F. Schaefer III,  N. E. Schultz,  N. Shenvi,  A. C. Simmonett,  A. Sodt,  
 D. Stuck,  K. S. Thanthiriwatte,  V. Vanovschi,  Tao Wang,  A. Warshel,  
 C. F. Williams,  Q. Wu,  X. Xu,  W. Zhang

 Please cite Q-Chem as follows:
 Y. Shao et al., Mol. Phys. 113, 184-215 (2015)
 DOI: 10.1080/00268976.2014.952696

 Q-Chem 5.2.2 for Intel X86 EM64T Linux

 Parts of Q-Chem use Armadillo 8.300.2 (Tropical Shenanigans).
 http://arma.sourceforge.net/

 Q-Chem begins on Thu Jul 16 09:06:28 2020  

Host: 
0

     Scratch files written to /tmp/scratch//
 Nov2519 |scratch|qcdevops|jenkins|workspace|build_RNUM 6829   
Processing $rem in /clusterfs/mp/software/qchem/config/preferences:
	 MEM_TOTAL  96000 
NAlpha2: 84
NElect   84
Mult     1
Symmetry turned off for PCM/SM12/SMD calculation

Checking the input file for inconsistencies... 	...done.

--------------------------------------------------------------
User input:
--------------------------------------------------------------
$molecule
1 1
C      0.1200291637      4.1628651696      0.1357149666
C      1.3437141778      4.9041354413      0.3505768930
O      1.5475550705      3.4534369007      0.0815922108
C      1.8652784796      2.5646665299      1.2105175431
O      2.2404567952      3.1015876209      2.2515095653
O      1.7291328026      1.3759969662      0.9332724528
Li      2.3569323303      1.1811043677      2.8017789312
H     -0.4364696167      3.8059532231      0.9934262555
H     -0.3110916115      4.0849305965     -0.8515049658
H      1.6170241326      5.1842359505      1.3600817599
H      1.7697157471      5.4857335823     -0.4581507529
O     -1.5223826220      5.9827822809      0.4087421822
C     -1.9696834802      5.9506920919      1.6084697264
O     -1.6701218899      5.0643776844      2.4706304592
O     -2.8049667580      6.9092731030      1.9686630142
Li     -2.8159350003      6.0163950753      3.6127145495
Li     -2.5813177207      7.5231334156      0.2192552091
$end

$rem
job_type = freq
basis = def2-tzvppd
max_scf_cycles = 200
gen_scfman = true
xc_grid = 3
scf_algorithm = diis
resp_charges = true
symmetry = false
sym_ignore = true
method = wb97xv
solvent_method = smd
ideriv = 1
thresh = 14
$end

$smx
solvent other
$end
--------------------------------------------------------------
 ----------------------------------------------------------------
             Standard Nuclear Orientation (Angstroms)
    I     Atom           X                Y                Z
 ----------------------------------------------------------------
    1      C       0.1200291637     4.1628651696     0.1357149666
    2      C       1.3437141778     4.9041354413     0.3505768930
    3      O       1.5475550705     3.4534369007     0.0815922108
    4      C       1.8652784796     2.5646665299     1.2105175431
    5      O       2.2404567952     3.1015876209     2.2515095653
    6      O       1.7291328026     1.3759969662     0.9332724528
    7      Li      2.3569323303     1.1811043677     2.8017789312
    8      H      -0.4364696167     3.8059532231     0.9934262555
    9      H      -0.3110916115     4.0849305965    -0.8515049658
   10      H       1.6170241326     5.1842359505     1.3600817599
   11      H       1.7697157471     5.4857335823    -0.4581507529
   12      O      -1.5223826220     5.9827822809     0.4087421822
   13      C      -1.9696834802     5.9506920919     1.6084697264
   14      O      -1.6701218899     5.0643776844     2.4706304592
   15      O      -2.8049667580     6.9092731030     1.9686630142
   16      Li     -2.8159350003     6.0163950753     3.6127145495
   17      Li     -2.5813177207     7.5231334156     0.2192552091
 ----------------------------------------------------------------
 Nuclear Repulsion Energy =         612.46990035 hartrees
 There are       42 alpha and       42 beta electrons
 Requested basis set is def2-TZVPPD
 There are 194 shells and 522 basis functions

 Total QAlloc Memory Limit  96000 MB
 Mega-Array Size       188 MB
 MEM_STATIC part       192 MB
 
 Citation of the SMD model:
 Marenich, A.V.; Cramer, C.J.; Truhlar, D.G.
 J. Phys. Chem. B 2009, 113, 6378-6396.
 iSolventCode=           0
 Solvent: other                                                           
 
 vradii
            1           2           3           4           5           6
    1   1.8500000   1.8500000   2.2940000   1.8500000   2.2940000   2.2940000
            7           8           9          10          11          12
    1   2.1476001   1.2000000   1.2000000   1.2000000   1.2000000   2.2940000
           13          14          15          16          17
    1   1.8500000   2.2940000   2.2940000   2.1476001   2.1476001
 Changing PCM_VDW_RADII to SMD_RADIUS
 Discretize the solute cavity surface with Lebedev spheres
	Using 110 Lebedev grid points for each H atom
	Using 194 Lebedev grid points for other atoms
	Atomic van der Waals radii will be scaled by 1.20
 Remove points where switching function is < 1.0e-08
 Keep 1227 surface tesserae and discard 1735 interior tesserae
 Molecular Surface Area = 263.519 Angst**2
 A cutoff of  1.0D-14 yielded  16566 shell pairs
 There are    121314 function pairs (    153576 Cartesian)
 Smallest overlap matrix eigenvalue = 3.27E-06
 Guess from superposition of atomic densities
 Warning:  Energy on first SCF cycle will be non-variational
 SAD guess density has 85.000000 electrons

 -----------------------------------------------------------------------
  General SCF calculation program by
  Eric Jon Sundstrom, Paul Horn, Yuezhi Mao, Dmitri Zuev, Alec White,
  David Stuck, Shaama M.S., Shane Yost, Joonho Lee, David Small,
  Daniel Levine, Susi Lehtola, Hugh Burton, Evgeny Epifanovsky,
  Bang C. Huynh
 -----------------------------------------------------------------------
 Exchange:     0.1670 Hartree-Fock + 1.0000 wB97X-V + LR-HF
 Correlation:  1.0000 wB97X-V
 Using SG-3 standard quadrature grid
 Nonlocal Correlation:  VV10 with C = 0.0100 and b = 6.00 and scale = 1.00000
 Grid used for NLC:  SG-1 standard quadrature
 
 Citation of the SMD model:
 Marenich, A.V.; Cramer, C.J.; Truhlar, D.G.
 J. Phys. Chem. B 2009, 113, 6378-6396.
 iSolventCode=           0
 Solvent: other                                                           
 
 vradii
            1           2           3           4           5           6
    1   1.8500000   1.8500000   2.2940000   1.8500000   2.2940000   2.2940000
            7           8           9          10          11          12
    1   2.1476001   1.2000000   1.2000000   1.2000000   1.2000000   2.2940000
           13          14          15          16          17
    1   1.8500000   2.2940000   2.2940000   2.1476001   2.1476001
 using 40 threads for integral computing
 -------------------------------------------------------
 OpenMP Integral computing Module                
 Release: version 1.0, May 2013, Q-Chem Inc. Pittsburgh 
 -------------------------------------------------------
 using 40 threads for integral computing
 -------------------------------------------------------
 OpenMP Integral computing Module                
 Release: version 1.0, May 2013, Q-Chem Inc. Pittsburgh 
 -------------------------------------------------------
 -------------------------------------------------------
 OpenMP BLAS3 based DFT computing Module                
 Release: version 1.0, May 2013, Q-Chem Inc. Pittsburgh 
 -------------------------------------------------------
 -------------------------------------------------------
 OpenMP BLAS3 based DFT computing Module                
 Release: version 1.0, May 2013, Q-Chem Inc. Pittsburgh 
 -------------------------------------------------------
 -------------------------------------------------------
 OpenMP BLAS3 based DFT computing Module                
 Release: version 1.0, May 2013, Q-Chem Inc. Pittsburgh 
 -------------------------------------------------------
 A restricted SCF calculation will be
 performed using DIIS
 SCF converges when DIIS error is below 1.0e-08
 ---------------------------------------
  Cycle       Energy         DIIS error
 ---------------------------------------
    1    -630.4915103125      1.99e-02  
    2    -628.4562353723      3.98e-03  
    3    -628.4255580180      4.51e-03  
    4    -628.8614650110      3.44e-04  
    5    -628.8631745694      2.32e-04  
    6    -628.8644272516      3.31e-05  
    7    -628.8644654595      1.26e-05  
    8    -628.8644710948      4.77e-06  
    9    -628.8644719242      2.09e-06  
   10    -628.8644720888      4.99e-07  
   11    -628.8644720996      2.47e-07  
   12    -628.8644721014      5.40e-08  
   13    -628.8644721015      2.20e-08  
   14    -628.8644721016      9.69e-09  Convergence criterion met
 ---------------------------------------
 SCF time:   CPU 5424.90s  wall 214.00s 
(3)  G-ENP(liq) elect-nuc-pol free energy of system     -628.864472102 a.u.
(4)  G-CDS(liq) cavity-dispersion-solvent structure 
     free energy                                               -2.5739 kcal/mol
(6)  G-S(liq) free energy of system                     -628.868573875 a.u.
 SCF   energy in the final basis set =     -628.8644721016
 Total energy in the final basis set =     -628.8685738750
 
 --------------------------------------------------------------
 
                    Orbital Energies (a.u.)
 --------------------------------------------------------------
 
 Alpha MOs
 -- Occupied --
-19.3468 -19.2384 -19.2348 -19.1772 -19.1747 -19.1712 -10.4736 -10.4041
-10.3813 -10.3709  -2.1465  -2.0937  -2.0930  -1.3125  -1.2333  -1.2110
 -1.1678  -1.0908  -1.0760  -0.9416  -0.8020  -0.7463  -0.6758  -0.6530
 -0.6312  -0.6218  -0.6017  -0.5818  -0.5692  -0.5666  -0.5611  -0.5438
 -0.5298  -0.5009  -0.4765  -0.4380  -0.4354  -0.4332  -0.4015  -0.3893
 -0.3871  -0.3681
 -- Virtual --
  0.0174   0.0204   0.0252   0.0339   0.0391   0.0398   0.0431   0.0486
  0.0526   0.0545   0.0621   0.0727   0.0764   0.0843   0.0894   0.1035
  0.1098   0.1121   0.1177   0.1193   0.1280   0.1300   0.1324   0.1378
  0.1386   0.1448   0.1462   0.1514   0.1529   0.1560   0.1631   0.1637
  0.1675   0.1710   0.1759   0.1833   0.1854   0.1888   0.1909   0.2020
  0.2111   0.2169   0.2231   0.2296   0.2354   0.2403   0.2480   0.2554
  0.2573   0.2718   0.2751   0.2834   0.2889   0.2960   0.3024   0.3082
  0.3121   0.3134   0.3189   0.3234   0.3341   0.3388   0.3437   0.3528
  0.3564   0.3595   0.3657   0.3731   0.3768   0.3814   0.3829   0.3880
  0.3929   0.3998   0.4057   0.4078   0.4107   0.4156   0.4198   0.4249
  0.4301   0.4321   0.4354   0.4381   0.4429   0.4492   0.4554   0.4636
  0.4685   0.4750   0.4783   0.4855   0.4894   0.4912   0.4938   0.5003
  0.5071   0.5082   0.5129   0.5176   0.5219   0.5271   0.5291   0.5357
  0.5388   0.5486   0.5504   0.5596   0.5629   0.5732   0.5774   0.5828
  0.5914   0.5919   0.5981   0.6126   0.6132   0.6228   0.6271   0.6342
  0.6387   0.6401   0.6492   0.6555   0.6617   0.6627   0.6732   0.6757
  0.6875   0.6998   0.7060   0.7111   0.7124   0.7248   0.7280   0.7381
  0.7410   0.7451   0.7526   0.7569   0.7639   0.7702   0.7794   0.7886
  0.7911   0.7991   0.8116   0.8150   0.8235   0.8270   0.8288   0.8349
  0.8521   0.8636   0.8678   0.8761   0.8823   0.8876   0.8964   0.9028
  0.9090   0.9157   0.9193   0.9304   0.9517   0.9572   0.9661   0.9731
  0.9806   0.9900   0.9983   1.0055   1.0201   1.0385   1.0436   1.0513
  1.0577   1.0640   1.0769   1.0833   1.0920   1.1034   1.1175   1.1351
  1.1410   1.1507   1.1683   1.2045   1.2150   1.2223   1.2312   1.2490
  1.2561   1.2621   1.2669   1.2747   1.2806   1.2866   1.2927   1.3020
  1.3288   1.3477   1.3549   1.3607   1.3751   1.3904   1.4074   1.4169
  1.4258   1.4337   1.4343   1.4584   1.4636   1.4920   1.4985   1.5130
  1.5383   1.5683   1.6005   1.6065   1.6285   1.6360   1.6724   1.6890
  1.7299   1.7685   1.7749   1.7976   1.8555   1.8596   1.8654   1.8733
  1.8908   1.9122   1.9159   1.9376   1.9389   1.9568   1.9698   1.9764
  1.9944   2.0108   2.0120   2.0216   2.0292   2.0615   2.0742   2.0888
  2.0973   2.1317   2.1560   2.1704   2.1991   2.2048   2.2356   2.2441
  2.2540   2.2581   2.2785   2.2930   2.3118   2.3468   2.3865   2.3999
  2.4279   2.4315   2.4594   2.4704   2.4898   2.5011   2.5175   2.5600
  2.6115   2.6516   2.6926   2.7329   2.7501   2.7877   2.8130   2.8704
  2.9097   2.9435   2.9570   2.9916   3.0028   3.0121   3.0254   3.0279
  3.0451   3.0588   3.0750   3.0964   3.1011   3.1483   3.1621   3.1804
  3.2146   3.2278   3.2335   3.2545   3.2609   3.2741   3.2912   3.3038
  3.3139   3.3263   3.3384   3.3516   3.3668   3.3763   3.4019   3.4303
  3.4476   3.4625   3.4742   3.5109   3.5258   3.5309   3.5348   3.5457
  3.5478   3.5607   3.5744   3.5891   3.6009   3.6063   3.6126   3.6196
  3.6324   3.6442   3.6591   3.6644   3.6806   3.7036   3.7396   3.7547
  3.7667   3.7775   3.8111   3.8516   3.8781   3.8876   3.9403   4.0016
  4.0150   4.0354   4.0797   4.1191   4.1354   4.1576   4.1927   4.2067
  4.2334   4.2988   4.3317   4.3534   4.3690   4.3837   4.4392   4.5198
  4.5262   4.5818   4.6718   4.6973   4.7133   4.7539   4.7704   4.8161
  4.8542   4.8734   4.9025   4.9571   4.9872   5.0876   5.1039   5.1419
  5.2207   5.2270   5.2366   5.2477   5.2637   5.2664   5.2838   5.2951
  5.3129   5.3286   5.3377   5.3687   5.3862   5.4010   5.4236   5.4981
  5.5134   5.5250   5.5339   5.5662   5.5938   5.5988   5.6133   5.6345
  5.6537   5.6815   5.7068   5.7208   5.7408   5.8054   5.8255   5.8872
  5.9199   5.9495   5.9658   5.9751   6.0164   6.0409   6.0857   6.0951
  6.1118   6.1713   6.2160   6.2411   6.2486   6.2671   6.2682   6.2814
  6.2880   6.2920   6.3208   6.3294   6.3651   6.3672   6.3993   6.4315
  6.4978   6.5693   6.5846   6.6219   6.6272   6.6457   6.6787   6.7009
  6.7251   6.7336   6.7527   6.7589   6.8197   6.8258   6.8685   6.9017
  6.9070   6.9308   6.9649   6.9777   7.0139   7.0877   7.1726   7.2917
  7.3276   7.3440   7.3935   7.4093   7.4302   7.4739   7.5030   7.5114
  7.5514   7.5846   7.6731  14.7124  14.8974  15.0427  23.6595  23.7353
 23.8331  23.8921  44.2080  44.2826  44.3218  44.3316  44.3770  44.5598
 --------------------------------------------------------------
 
          Ground-State Mulliken Net Atomic Charges

     Atom                 Charge (a.u.)
  ----------------------------------------
      1 C                     0.373556
      2 C                     0.187056
      3 O                    -0.063580
      4 C                     0.829739
      5 O                    -0.718679
      6 O                    -0.693905
      7 Li                    0.887145
      8 H                     0.022453
      9 H                     0.022636
     10 H                     0.075477
     11 H                     0.004594
     12 O                    -0.856070
     13 C                     1.128659
     14 O                    -0.855826
     15 O                    -1.036054
     16 Li                    0.845359
     17 Li                    0.847440
  ----------------------------------------
  Sum of atomic charges =     1.000000

  Building new vdw surfaces
         Merz-Kollman RESP Net Atomic Charges

     Atom                 Charge (a.u.)
  ----------------------------------------
      1 C                    -0.099786
      2 C                     0.015092
      3 O                    -0.189145
      4 C                     0.762546
      5 O                    -0.642796
      6 O                    -0.642796
      7 Li                    0.876165
      8 H                     0.238528
      9 H                     0.238528
     10 H                     0.188382
     11 H                     0.188382
     12 O                    -0.795370
     13 C                     0.862420
     14 O                    -0.812724
     15 O                    -0.947577
     16 Li                    0.880413
     17 Li                    0.879738
  ----------------------------------------
  Sum of atomic charges =     1.000000

  Related Dipole Moment =    24.3973 (X -0.5359 Y 22.2664 Z  9.9573)

 -----------------------------------------------------------------
                    Cartesian Multipole Moments
 -----------------------------------------------------------------
    Charge (ESU x 10^10)
                 4.8032
    Dipole Moment (Debye)
         X      -0.5576      Y      22.2752      Z      10.0214
       Tot      24.4320
    Quadrupole Moments (Debye-Ang)
        XX     -23.3544     XY     -38.2912     YY      89.1077
        XZ       1.4950     YZ      22.2734     ZZ     -11.9578
    Octopole Moments (Debye-Ang^2)
       XXX     -29.7895    XXY     -92.4147    XYY    -318.8066
       YYY     287.9579    XXZ      22.4051    XYZ     -83.4720
       YYZ      32.4869    XZZ     -35.7539    YZZ     -97.5318
       ZZZ     -21.2884
    Hexadecapole Moments (Debye-Ang^3)
      XXXX   -1015.3481   XXXY      85.0823   XXYY    -419.4667
      XYYY   -1957.7979   YYYY     -84.4164   XXXZ      24.4339
      XXYZ     -28.4571   XYYZ    -478.4023   YYYZ    -426.8641
      XXZZ      49.9140   XYZZ    -347.1483   YYZZ    -581.4665
      XZZZ    -159.3512   YZZZ    -175.2619   ZZZZ    -118.9457
 -----------------------------------------------------------------
 Calculating analytic gradient of the SCF energy
 Gradient of CDS energy
            1           2           3           4           5           6
    1  -0.0007984   0.0010180  -0.0007123   0.0005599  -0.0002674   0.0000892
    2  -0.0007342   0.0010264   0.0000540   0.0002251  -0.0000589  -0.0001504
    3  -0.0005805  -0.0002316   0.0005517  -0.0006589   0.0001449   0.0003081
            7           8           9          10          11          12
    1   0.0000054   0.0001208  -0.0000441  -0.0000249  -0.0000789   0.0000560
    2  -0.0000176   0.0003920   0.0002194  -0.0004941  -0.0002265   0.0001273
    3   0.0000135   0.0001466   0.0001829   0.0000827   0.0001579  -0.0000782
           13          14          15          16          17
    1   0.0001525   0.0000274  -0.0000979  -0.0000054   0.0000003
    2  -0.0004050  -0.0000658   0.0000954  -0.0000079   0.0000209
    3  -0.0002995   0.0002200   0.0000317   0.0000330  -0.0000243
 Gradient of SCF Energy
            1           2           3           4           5           6
    1   0.0305555  -0.0203478  -0.0006476   0.0112798   0.0017162  -0.0047896
    2   0.0090993  -0.0387500  -0.0017427  -0.0002806   0.0104036  -0.0127292
    3   0.0085142   0.0011039  -0.0051665  -0.0001958   0.0098018  -0.0108329
            7           8           9          10          11          12
    1   0.0005686  -0.0190691  -0.0219375   0.0087277   0.0165629  -0.0010380
    2  -0.0020507  -0.0065932   0.0053244   0.0106637   0.0272192  -0.0070241
    3   0.0053405   0.0212149  -0.0318536   0.0284146  -0.0279921   0.0027550
           13          14          15          16          17
    1  -0.0111639   0.0013969   0.0098285  -0.0015145  -0.0001280
    2   0.0171964  -0.0025248  -0.0116351  -0.0002920   0.0037156
    3   0.0093445  -0.0063306  -0.0049917   0.0049179  -0.0040442
 Max gradient component =       3.875E-02
 RMS gradient           =       1.387E-02
 Computing fast CPCM-SWIG gradient
 Updating gradient with PCM contributions...
 -- total gradient after adding PCM contribution --
---------------------------------------------------
  Atom         X              Y              Z     
---------------------------------------------------
   1       0.000010       0.000078       0.000143
   2       0.000146      -0.000028       0.000096
   3      -0.000082       0.000022       0.000008
   4      -0.000092       0.000064      -0.000106
   5       0.000026       0.000013       0.000031
   6       0.000015      -0.000008       0.000006
   7      -0.000000       0.000004      -0.000008
   8      -0.000011      -0.000107       0.000015
   9       0.000032      -0.000064      -0.000118
  10      -0.000019       0.000008      -0.000022
  11      -0.000026      -0.000008      -0.000016
  12       0.000148      -0.000022      -0.000434
  13      -0.000037       0.000103       0.000280
  14       0.000033      -0.000067       0.000028
  15      -0.000126       0.000033       0.000075
  16      -0.000000      -0.000009       0.000001
  17      -0.000018      -0.000011       0.000021
---------------------------------------------------
 Number of fixed atoms: 0
 Gradient time:  CPU 1325.53 s  wall 62.22 s
 ######################################################
 ######################################################
 # Starting finite difference calculation for IDERIV  #
 Finite diff step size:  1.88973e-03 a.u.
 ----------------------------------------------------------------
             Standard Nuclear Orientation (Angstroms)
    I     Atom           X                Y                Z
 ----------------------------------------------------------------
    1      C       0.1210291637     4.1628651696     0.1357149666
    2      C       1.3437141778     4.9041354413     0.3505768930
    3      O       1.5475550705     3.4534369007     0.0815922108
    4      C       1.8652784796     2.5646665299     1.2105175431
    5      O       2.2404567952     3.1015876209     2.2515095653
    6      O       1.7291328026     1.3759969662     0.9332724528
    7      Li      2.3569323303     1.1811043677     2.8017789312
    8      H      -0.4364696167     3.8059532231     0.9934262555
    9      H      -0.3110916115     4.0849305965    -0.8515049658
   10      H       1.6170241326     5.1842359505     1.3600817599
   11      H       1.7697157471     5.4857335823    -0.4581507529
   12      O      -1.5223826220     5.9827822809     0.4087421822
   13      C      -1.9696834802     5.9506920919     1.6084697264
   14      O      -1.6701218899     5.0643776844     2.4706304592
   15      O      -2.8049667580     6.9092731030     1.9686630142
   16      Li     -2.8159350003     6.0163950753     3.6127145495
   17      Li     -2.5813177207     7.5231334156     0.2192552091
 ----------------------------------------------------------------
 Nuclear Repulsion Energy =         612.48285455 hartrees
 There are       42 alpha and       42 beta electrons
 Discretize the solute cavity surface with Lebedev spheres
	Using 110 Lebedev grid points for each H atom
	Using 194 Lebedev grid points for other atoms
	Atomic van der Waals radii will be scaled by 1.20
 Remove points where switching function is < 1.0e-08
 Keep 1227 surface tesserae and discard 1735 interior tesserae
 Molecular Surface Area = 263.518 Angst**2
 Requested basis set is def2-TZVPPD
 There are 194 shells and 522 basis functions
 A cutoff of  1.0D-14 yielded  16566 shell pairs
 There are    121314 function pairs (    153576 Cartesian)
 Smallest overlap matrix eigenvalue = 3.25E-06
 Guess MOs from SCF MO coefficient file

 -----------------------------------------------------------------------
  General SCF calculation program by
  Eric Jon Sundstrom, Paul Horn, Yuezhi Mao, Dmitri Zuev, Alec White,
  David Stuck, Shaama M.S., Shane Yost, Joonho Lee, David Small,
  Daniel Levine, Susi Lehtola, Hugh Burton, Evgeny Epifanovsky,
  Bang C. Huynh
 -----------------------------------------------------------------------
 Exchange:     0.1670 Hartree-Fock + 1.0000 wB97X-V + LR-HF
 Correlation:  1.0000 wB97X-V
 Using SG-3 standard quadrature grid
 Nonlocal Correlation:  VV10 with C = 0.0100 and b = 6.00 and scale = 1.00000
 Grid used for NLC:  SG-1 standard quadrature
 
 Citation of the SMD model:
 Marenich, A.V.; Cramer, C.J.; Truhlar, D.G.
 J. Phys. Chem. B 2009, 113, 6378-6396.
 iSolventCode=           0
 Solvent: other                                                           
 
 vradii
            1           2           3           4           5           6
    1   1.8500000   1.8500000   2.2940000   1.8500000   2.2940000   2.2940000
            7           8           9          10          11          12
    1   2.1476001   1.2000000   1.2000000   1.2000000   1.2000000   2.2940000
           13          14          15          16          17
    1   1.8500000   2.2940000   2.2940000   2.1476001   2.1476001
 using 40 threads for integral computing
 -------------------------------------------------------
 OpenMP Integral computing Module                
 Release: version 1.0, May 2013, Q-Chem Inc. Pittsburgh 
 -------------------------------------------------------
 using 40 threads for integral computing
 -------------------------------------------------------
 OpenMP Integral computing Module                
 Release: version 1.0, May 2013, Q-Chem Inc. Pittsburgh 
 -------------------------------------------------------
 -------------------------------------------------------
 OpenMP BLAS3 based DFT computing Module                
 Release: version 1.0, May 2013, Q-Chem Inc. Pittsburgh 
 -------------------------------------------------------
 -------------------------------------------------------
 OpenMP BLAS3 based DFT computing Module                
 Release: version 1.0, May 2013, Q-Chem Inc. Pittsburgh 
 -------------------------------------------------------
 -------------------------------------------------------
 OpenMP BLAS3 based DFT computing Module                
 Release: version 1.0, May 2013, Q-Chem Inc. Pittsburgh 
 -------------------------------------------------------
 A restricted SCF calculation will be
 performed using Roothaan-Hall, DIIS
 SCF converges when DIIS error is below 1.0e-08
 ---------------------------------------
  Cycle       Energy         DIIS error
 ---------------------------------------
    1    -637.6370880660      1.22e-04  Roothaan Step
 ---------------------------------------
  Cycle       Energy         DIIS error
 ---------------------------------------
    1    -628.8635769169      1.31e-04  
    2    -628.8642162411      1.02e-04  
    3    -628.8644331570      3.52e-05  
    4    -628.8644655930      9.95e-06  
    5    -628.8644689538      4.66e-06  
    6    -628.8644695802      1.23e-06  
    7    -628.8644696447      3.79e-07  
    8    -628.8644696506      1.41e-07  
    9    -628.8644696514      6.97e-08  
   10    -628.8644696516      1.18e-08  
   11    -628.8644696516      3.60e-09  Convergence criterion met
 ---------------------------------------
 SCF time:   CPU 4886.19s  wall 191.00s 
(3)  G-ENP(liq) elect-nuc-pol free energy of system     -628.864469652 a.u.
(4)  G-CDS(liq) cavity-dispersion-solvent structure 
     free energy                                               -2.5748 kcal/mol
(6)  G-S(liq) free energy of system                     -628.868572931 a.u.
 SCF   energy in the final basis set =     -628.8644696516
 Total energy in the final basis set =     -628.8685729314
 
 --------------------------------------------------------------
 
                    Orbital Energies (a.u.)
 --------------------------------------------------------------
 
 Alpha MOs
 -- Occupied --
-19.3469 -19.2384 -19.2348 -19.1772 -19.1746 -19.1712 -10.4737 -10.4041
-10.3813 -10.3709  -2.1465  -2.0936  -2.0930  -1.3127  -1.2334  -1.2110
 -1.1678  -1.0907  -1.0760  -0.9417  -0.8020  -0.7464  -0.6759  -0.6530
 -0.6312  -0.6218  -0.6017  -0.5818  -0.5692  -0.5666  -0.5611  -0.5438
 -0.5297  -0.5011  -0.4766  -0.4380  -0.4354  -0.4332  -0.4015  -0.3893
 -0.3871  -0.3681
 -- Virtual --
  0.0174   0.0204   0.0252   0.0339   0.0391   0.0399   0.0431   0.0487
  0.0526   0.0545   0.0621   0.0728   0.0764   0.0843   0.0894   0.1035
  0.1098   0.1121   0.1177   0.1194   0.1280   0.1300   0.1324   0.1378
  0.1386   0.1448   0.1462   0.1514   0.1529   0.1560   0.1631   0.1637
  0.1675   0.1710   0.1759   0.1833   0.1854   0.1888   0.1909   0.2020
  0.2111   0.2169   0.2231   0.2296   0.2354   0.2403   0.2480   0.2554
  0.2573   0.2719   0.2751   0.2834   0.2889   0.2960   0.3024   0.3082
  0.3121   0.3134   0.3189   0.3234   0.3341   0.3388   0.3437   0.3528
  0.3564   0.3595   0.3657   0.3731   0.3768   0.3814   0.3829   0.3880
  0.3929   0.3998   0.4057   0.4078   0.4107   0.4156   0.4198   0.4249
  0.4301   0.4321   0.4354   0.4381   0.4429   0.4492   0.4554   0.4636
  0.4685   0.4750   0.4784   0.4855   0.4894   0.4912   0.4938   0.5003
  0.5072   0.5082   0.5129   0.5177   0.5219   0.5271   0.5291   0.5357
  0.5388   0.5486   0.5504   0.5596   0.5629   0.5732   0.5775   0.5827
  0.5914   0.5919   0.5981   0.6126   0.6132   0.6228   0.6271   0.6342
  0.6387   0.6402   0.6492   0.6555   0.6618   0.6627   0.6732   0.6757
  0.6875   0.6997   0.7060   0.7111   0.7123   0.7248   0.7280   0.7381
  0.7410   0.7451   0.7526   0.7569   0.7639   0.7702   0.7794   0.7887
  0.7911   0.7991   0.8115   0.8151   0.8235   0.8270   0.8288   0.8349
  0.8521   0.8636   0.8678   0.8761   0.8822   0.8876   0.8964   0.9028
  0.9090   0.9157   0.9193   0.9303   0.9517   0.9573   0.9661   0.9732
  0.9806   0.9900   0.9983   1.0055   1.0201   1.0385   1.0436   1.0513
  1.0577   1.0639   1.0769   1.0834   1.0920   1.1034   1.1176   1.1351
  1.1410   1.1507   1.1683   1.2045   1.2150   1.2223   1.2312   1.2490
  1.2561   1.2621   1.2669   1.2747   1.2806   1.2866   1.2927   1.3020
  1.3288   1.3476   1.3549   1.3607   1.3751   1.3904   1.4075   1.4169
  1.4258   1.4337   1.4344   1.4584   1.4637   1.4920   1.4984   1.5130
  1.5383   1.5683   1.6006   1.6066   1.6286   1.6359   1.6724   1.6890
  1.7298   1.7685   1.7749   1.7977   1.8555   1.8596   1.8654   1.8733
  1.8908   1.9123   1.9159   1.9376   1.9389   1.9569   1.9699   1.9765
  1.9944   2.0108   2.0120   2.0216   2.0291   2.0615   2.0742   2.0889
  2.0974   2.1317   2.1560   2.1704   2.1992   2.2049   2.2357   2.2442
  2.2540   2.2582   2.2787   2.2930   2.3120   2.3469   2.3866   2.3999
  2.4279   2.4314   2.4594   2.4704   2.4898   2.5010   2.5176   2.5600
  2.6115   2.6516   2.6927   2.7330   2.7502   2.7877   2.8136   2.8702
  2.9099   2.9433   2.9571   2.9917   3.0029   3.0122   3.0255   3.0278
  3.0452   3.0588   3.0751   3.0965   3.1012   3.1483   3.1622   3.1806
  3.2147   3.2279   3.2335   3.2545   3.2609   3.2742   3.2913   3.3038
  3.3139   3.3263   3.3385   3.3516   3.3669   3.3762   3.4019   3.4302
  3.4478   3.4624   3.4742   3.5109   3.5259   3.5310   3.5348   3.5458
  3.5477   3.5609   3.5745   3.5892   3.6010   3.6063   3.6126   3.6196
  3.6323   3.6443   3.6590   3.6644   3.6807   3.7037   3.7395   3.7548
  3.7668   3.7775   3.8113   3.8517   3.8783   3.8875   3.9405   4.0019
  4.0150   4.0357   4.0795   4.1192   4.1354   4.1577   4.1928   4.2069
  4.2336   4.2992   4.3318   4.3536   4.3696   4.3845   4.4393   4.5197
  4.5264   4.5817   4.6718   4.6972   4.7132   4.7539   4.7704   4.8156
  4.8541   4.8733   4.9024   4.9568   4.9867   5.0878   5.1035   5.1418
  5.2207   5.2270   5.2366   5.2477   5.2637   5.2665   5.2839   5.2952
  5.3129   5.3286   5.3377   5.3686   5.3861   5.4010   5.4238   5.4982
  5.5134   5.5250   5.5339   5.5662   5.5939   5.5989   5.6133   5.6346
  5.6535   5.6808   5.7066   5.7205   5.7410   5.8056   5.8257   5.8872
  5.9199   5.9496   5.9660   5.9752   6.0164   6.0412   6.0857   6.0950
  6.1118   6.1713   6.2163   6.2410   6.2485   6.2671   6.2682   6.2815
  6.2880   6.2921   6.3209   6.3294   6.3650   6.3672   6.3993   6.4315
  6.4978   6.5693   6.5846   6.6219   6.6272   6.6457   6.6787   6.7010
  6.7251   6.7336   6.7527   6.7589   6.8197   6.8258   6.8685   6.9017
  6.9070   6.9308   6.9649   6.9778   7.0138   7.0877   7.1726   7.2918
  7.3276   7.3441   7.3936   7.4093   7.4302   7.4740   7.5034   7.5116
  7.5514   7.5846   7.6731  14.7124  14.8974  15.0426  23.6605  23.7345
 23.8332  23.8920  44.2080  44.2826  44.3218  44.3316  44.3770  44.5601
 --------------------------------------------------------------
 
          Ground-State Mulliken Net Atomic Charges

     Atom                 Charge (a.u.)
  ----------------------------------------
      1 C                     0.373750
      2 C                     0.187102
      3 O                    -0.063214
      4 C                     0.829684
      5 O                    -0.718635
      6 O                    -0.693849
      7 Li                    0.887155
      8 H                     0.022160
      9 H                     0.022442
     10 H                     0.075432
     11 H                     0.004560
     12 O                    -0.856049
     13 C                     1.128585
     14 O                    -0.855838
     15 O                    -1.036072
     16 Li                    0.845353
     17 Li                    0.847434
  ----------------------------------------
  Sum of atomic charges =     1.000000

  Building new vdw surfaces
         Merz-Kollman RESP Net Atomic Charges

     Atom                 Charge (a.u.)
  ----------------------------------------
      1 C                    -0.099017
      2 C                     0.014981
      3 O                    -0.188920
      4 C                     0.762507
      5 O                    -0.642720
      6 O                    -0.642720
      7 Li                    0.876182
      8 H                     0.238113
      9 H                     0.238113
     10 H                     0.188405
     11 H                     0.188405
     12 O                    -0.795594
     13 C                     0.862515
     14 O                    -0.812753
     15 O                    -0.947643
     16 Li                    0.880398
     17 Li                    0.879749
  ----------------------------------------
  Sum of atomic charges =     1.000000

  Related Dipole Moment =    24.3942 (X -0.5299 Y 22.2630 Z  9.9577)

 -----------------------------------------------------------------
                    Cartesian Multipole Moments
 -----------------------------------------------------------------
    Charge (ESU x 10^10)
                 4.8032
    Dipole Moment (Debye)
         X      -0.5516      Y      22.2716      Z      10.0218
       Tot      24.4288
    Quadrupole Moments (Debye-Ang)
        XX     -23.3515     XY     -38.2665     YY      89.0804
        XZ       1.5001     YZ      22.2716     ZZ     -11.9580
    Octopole Moments (Debye-Ang^2)
       XXX     -29.7749    XXY     -92.4211    XYY    -318.6878
       YYY     287.7744    XXZ      22.4056    XYZ     -83.4502
       YYZ      32.4664    XZZ     -35.7437    YZZ     -97.5420
       ZZZ     -21.2874
    Hexadecapole Moments (Debye-Ang^3)
      XXXX   -1015.3509   XXXY      85.1485   XXYY    -419.5736
      XYYY   -1957.1658   YYYY     -85.6426   XXXZ      24.4711
      XXYZ     -28.4794   XYYZ    -478.2844   YYYZ    -427.0331
      XXZZ      49.9145   XYZZ    -347.1031   YYZZ    -581.5486
      XZZZ    -159.3142   YZZZ    -175.2832   ZZZZ    -118.9526
 -----------------------------------------------------------------
 Calculating analytic gradient of the SCF energy
 Gradient of CDS energy
            1           2           3           4           5           6
    1  -0.0007959   0.0010168  -0.0007120   0.0005598  -0.0002674   0.0000892
    2  -0.0007338   0.0010257   0.0000541   0.0002251  -0.0000590  -0.0001504
    3  -0.0005810  -0.0002316   0.0005523  -0.0006590   0.0001449   0.0003081
            7           8           9          10          11          12
    1   0.0000054   0.0001201  -0.0000452  -0.0000249  -0.0000789   0.0000560
    2  -0.0000176   0.0003918   0.0002199  -0.0004940  -0.0002265   0.0001269
    3   0.0000135   0.0001469   0.0001828   0.0000827   0.0001578  -0.0000785
           13          14          15          16          17
    1   0.0001525   0.0000274  -0.0000979  -0.0000054   0.0000003
    2  -0.0004050  -0.0000658   0.0000954  -0.0000079   0.0000209
    3  -0.0002995   0.0002200   0.0000317   0.0000330  -0.0000243
 Gradient of SCF Energy
            1           2           3           4           5           6
    1   0.0315732  -0.0207962  -0.0007311   0.0112692   0.0017241  -0.0047915
    2   0.0096434  -0.0391356  -0.0017338  -0.0002242   0.0104046  -0.0127608
    3   0.0085519   0.0010596  -0.0051340  -0.0002718   0.0098394  -0.0108203
            7           8           9          10          11          12
    1   0.0005692  -0.0193070  -0.0221265   0.0087000   0.0165223  -0.0010158
    2  -0.0020472  -0.0067096   0.0052799   0.0106607   0.0272182  -0.0070575
    3   0.0053350   0.0214135  -0.0320316   0.0284183  -0.0280026   0.0027316
           13          14          15          16          17
    1  -0.0111774   0.0013955   0.0098379  -0.0015152  -0.0001306
    2   0.0171897  -0.0025163  -0.0116412  -0.0002918   0.0037215
    3   0.0093843  -0.0063417  -0.0050073   0.0049219  -0.0040463
 Max gradient component =       3.914E-02
 RMS gradient           =       1.398E-02
 Computing fast CPCM-SWIG gradient
 Updating gradient with PCM contributions...
 -- total gradient after adding PCM contribution --
---------------------------------------------------
  Atom         X              Y              Z     
---------------------------------------------------
   1       0.000989       0.000562       0.000204
   2      -0.000319      -0.000389       0.000019
   3      -0.000166       0.000065       0.000055
   4      -0.000107       0.000123      -0.000177
   5       0.000034       0.000010       0.000058
   6       0.000017      -0.000033       0.000016
   7      -0.000001       0.000007      -0.000011
   8      -0.000241      -0.000234       0.000248
   9      -0.000140      -0.000109      -0.000339
  10      -0.000030       0.000006      -0.000020
  11      -0.000045      -0.000010      -0.000023
  12       0.000162      -0.000046      -0.000451
  13      -0.000049       0.000099       0.000317
  14       0.000034      -0.000060       0.000018
  15      -0.000115       0.000027       0.000062
  16      -0.000001      -0.000009       0.000003
  17      -0.000021      -0.000006       0.000019
---------------------------------------------------
 Number of fixed atoms: 0
 Gradient time:  CPU 1335.81 s  wall 62.31 s
 ----------------------------------------------------------------
             Standard Nuclear Orientation (Angstroms)
    I     Atom           X                Y                Z
 ----------------------------------------------------------------
    1      C       0.1190291637     4.1628651696     0.1357149666
    2      C       1.3437141778     4.9041354413     0.3505768930
    3      O       1.5475550705     3.4534369007     0.0815922108
    4      C       1.8652784796     2.5646665299     1.2105175431
    5      O       2.2404567952     3.1015876209     2.2515095653
    6      O       1.7291328026     1.3759969662     0.9332724528
    7      Li      2.3569323303     1.1811043677     2.8017789312
    8      H      -0.4364696167     3.8059532231     0.9934262555
    9      H      -0.3110916115     4.0849305965    -0.8515049658
   10      H       1.6170241326     5.1842359505     1.3600817599
   11      H       1.7697157471     5.4857335823    -0.4581507529
   12      O      -1.5223826220     5.9827822809     0.4087421822
   13      C      -1.9696834802     5.9506920919     1.6084697264
   14      O      -1.6701218899     5.0643776844     2.4706304592
   15      O      -2.8049667580     6.9092731030     1.9686630142
   16      Li     -2.8159350003     6.0163950753     3.6127145495
   17      Li     -2.5813177207     7.5231334156     0.2192552091
 ----------------------------------------------------------------
 Nuclear Repulsion Energy =         612.45696196 hartrees
 There are       42 alpha and       42 beta electrons
 Discretize the solute cavity surface with Lebedev spheres
	Using 110 Lebedev grid points for each H atom
	Using 194 Lebedev grid points for other atoms
	Atomic van der Waals radii will be scaled by 1.20
 Remove points where switching function is < 1.0e-08
 Keep 1227 surface tesserae and discard 1735 interior tesserae
 Molecular Surface Area = 263.520 Angst**2
 Requested basis set is def2-TZVPPD
 There are 194 shells and 522 basis functions
 A cutoff of  1.0D-14 yielded  16566 shell pairs
 There are    121314 function pairs (    153576 Cartesian)
 Smallest overlap matrix eigenvalue = 3.28E-06
 Guess MOs from SCF MO coefficient file

 -----------------------------------------------------------------------
  General SCF calculation program by
  Eric Jon Sundstrom, Paul Horn, Yuezhi Mao, Dmitri Zuev, Alec White,
  David Stuck, Shaama M.S., Shane Yost, Joonho Lee, David Small,
  Daniel Levine, Susi Lehtola, Hugh Burton, Evgeny Epifanovsky,
  Bang C. Huynh
 -----------------------------------------------------------------------
 Exchange:     0.1670 Hartree-Fock + 1.0000 wB97X-V + LR-HF
 Correlation:  1.0000 wB97X-V
 Using SG-3 standard quadrature grid
 Nonlocal Correlation:  VV10 with C = 0.0100 and b = 6.00 and scale = 1.00000
 Grid used for NLC:  SG-1 standard quadrature
 
 Citation of the SMD model:
 Marenich, A.V.; Cramer, C.J.; Truhlar, D.G.
 J. Phys. Chem. B 2009, 113, 6378-6396.
 iSolventCode=           0
 Solvent: other                                                           
 
 vradii
            1           2           3           4           5           6
    1   1.8500000   1.8500000   2.2940000   1.8500000   2.2940000   2.2940000
            7           8           9          10          11          12
    1   2.1476001   1.2000000   1.2000000   1.2000000   1.2000000   2.2940000
           13          14          15          16          17
    1   1.8500000   2.2940000   2.2940000   2.1476001   2.1476001
 using 40 threads for integral computing
 -------------------------------------------------------
 OpenMP Integral computing Module                
 Release: version 1.0, May 2013, Q-Chem Inc. Pittsburgh 
 -------------------------------------------------------
 using 40 threads for integral computing
 -------------------------------------------------------
 OpenMP Integral computing Module                
 Release: version 1.0, May 2013, Q-Chem Inc. Pittsburgh 
 -------------------------------------------------------
 -------------------------------------------------------
 OpenMP BLAS3 based DFT computing Module                
 Release: version 1.0, May 2013, Q-Chem Inc. Pittsburgh 
 -------------------------------------------------------
 -------------------------------------------------------
 OpenMP BLAS3 based DFT computing Module                
 Release: version 1.0, May 2013, Q-Chem Inc. Pittsburgh 
 -------------------------------------------------------
 -------------------------------------------------------
 OpenMP BLAS3 based DFT computing Module                
 Release: version 1.0, May 2013, Q-Chem Inc. Pittsburgh 
 -------------------------------------------------------
 A restricted SCF calculation will be
 performed using Roothaan-Hall, DIIS
 SCF converges when DIIS error is below 1.0e-08
 ---------------------------------------
  Cycle       Energy         DIIS error
 ---------------------------------------
    1    -637.6369554131      1.22e-04  Roothaan Step
 ---------------------------------------
  Cycle       Energy         DIIS error
 ---------------------------------------
    1    -628.8635763198      1.31e-04  
    2    -628.8642119188      1.04e-04  
    3    -628.8644361601      3.51e-05  
    4    -628.8644686770      9.91e-06  
    5    -628.8644720135      4.66e-06  
    6    -628.8644726385      1.22e-06  
    7    -628.8644727023      3.76e-07  
    8    -628.8644727080      1.42e-07  
    9    -628.8644727088      6.87e-08  
   10    -628.8644727090      1.17e-08  
   11    -628.8644727090      3.57e-09  Convergence criterion met
 ---------------------------------------
 SCF time:   CPU 4885.66s  wall 192.00s 
(3)  G-ENP(liq) elect-nuc-pol free energy of system     -628.864472709 a.u.
(4)  G-CDS(liq) cavity-dispersion-solvent structure 
     free energy                                               -2.5730 kcal/mol
(6)  G-S(liq) free energy of system                     -628.868572971 a.u.
 SCF   energy in the final basis set =     -628.8644727090
 Total energy in the final basis set =     -628.8685729712
 
 --------------------------------------------------------------
 
                    Orbital Energies (a.u.)
 --------------------------------------------------------------
 
 Alpha MOs
 -- Occupied --
-19.3467 -19.2383 -19.2348 -19.1772 -19.1747 -19.1712 -10.4736 -10.4041
-10.3814 -10.3710  -2.1465  -2.0937  -2.0930  -1.3123  -1.2331  -1.2111
 -1.1677  -1.0908  -1.0760  -0.9415  -0.8021  -0.7462  -0.6758  -0.6529
 -0.6312  -0.6218  -0.6017  -0.5818  -0.5692  -0.5666  -0.5611  -0.5437
 -0.5300  -0.5008  -0.4765  -0.4380  -0.4354  -0.4332  -0.4015  -0.3894
 -0.3871  -0.3681
 -- Virtual --
  0.0174   0.0204   0.0252   0.0339   0.0391   0.0398   0.0431   0.0486
  0.0526   0.0545   0.0621   0.0727   0.0764   0.0843   0.0894   0.1035
  0.1098   0.1121   0.1177   0.1193   0.1280   0.1300   0.1324   0.1378
  0.1386   0.1448   0.1462   0.1514   0.1529   0.1560   0.1632   0.1636
  0.1675   0.1710   0.1759   0.1833   0.1854   0.1889   0.1909   0.2020
  0.2111   0.2169   0.2231   0.2296   0.2354   0.2404   0.2480   0.2554
  0.2573   0.2718   0.2751   0.2834   0.2890   0.2960   0.3024   0.3082
  0.3122   0.3134   0.3189   0.3234   0.3342   0.3388   0.3437   0.3528
  0.3564   0.3595   0.3657   0.3731   0.3768   0.3814   0.3829   0.3879
  0.3928   0.3997   0.4057   0.4078   0.4107   0.4156   0.4198   0.4249
  0.4301   0.4321   0.4354   0.4381   0.4429   0.4492   0.4554   0.4636
  0.4685   0.4750   0.4783   0.4855   0.4894   0.4913   0.4938   0.5003
  0.5071   0.5082   0.5129   0.5176   0.5219   0.5271   0.5291   0.5357
  0.5388   0.5486   0.5504   0.5596   0.5630   0.5732   0.5774   0.5828
  0.5915   0.5919   0.5981   0.6126   0.6132   0.6228   0.6271   0.6342
  0.6388   0.6401   0.6492   0.6555   0.6617   0.6627   0.6732   0.6757
  0.6875   0.6998   0.7060   0.7111   0.7124   0.7249   0.7280   0.7381
  0.7410   0.7451   0.7526   0.7569   0.7639   0.7701   0.7794   0.7886
  0.7911   0.7991   0.8116   0.8150   0.8235   0.8270   0.8288   0.8349
  0.8521   0.8636   0.8679   0.8761   0.8823   0.8876   0.8964   0.9028
  0.9090   0.9158   0.9193   0.9304   0.9517   0.9572   0.9661   0.9731
  0.9806   0.9900   0.9984   1.0055   1.0201   1.0385   1.0436   1.0513
  1.0577   1.0640   1.0769   1.0833   1.0920   1.1033   1.1175   1.1351
  1.1410   1.1507   1.1683   1.2045   1.2150   1.2222   1.2312   1.2490
  1.2560   1.2621   1.2668   1.2747   1.2806   1.2866   1.2927   1.3020
  1.3289   1.3477   1.3549   1.3607   1.3751   1.3904   1.4073   1.4168
  1.4258   1.4337   1.4343   1.4584   1.4635   1.4919   1.4985   1.5131
  1.5383   1.5683   1.6005   1.6065   1.6285   1.6360   1.6725   1.6890
  1.7299   1.7685   1.7750   1.7975   1.8555   1.8596   1.8654   1.8733
  1.8908   1.9122   1.9159   1.9376   1.9389   1.9568   1.9698   1.9764
  1.9944   2.0108   2.0121   2.0216   2.0293   2.0615   2.0742   2.0888
  2.0971   2.1317   2.1559   2.1704   2.1989   2.2047   2.2355   2.2441
  2.2540   2.2580   2.2783   2.2930   2.3117   2.3467   2.3863   2.3999
  2.4279   2.4316   2.4593   2.4705   2.4898   2.5011   2.5175   2.5600
  2.6115   2.6517   2.6925   2.7329   2.7500   2.7878   2.8124   2.8706
  2.9094   2.9438   2.9568   2.9916   3.0028   3.0120   3.0254   3.0280
  3.0450   3.0588   3.0749   3.0963   3.1011   3.1483   3.1619   3.1803
  3.2145   3.2277   3.2334   3.2546   3.2609   3.2740   3.2912   3.3038
  3.3139   3.3263   3.3384   3.3516   3.3668   3.3763   3.4018   3.4305
  3.4474   3.4625   3.4742   3.5109   3.5257   3.5308   3.5347   3.5457
  3.5480   3.5606   3.5743   3.5891   3.6009   3.6063   3.6126   3.6195
  3.6324   3.6441   3.6593   3.6644   3.6805   3.7035   3.7398   3.7546
  3.7665   3.7775   3.8109   3.8515   3.8780   3.8876   3.9401   4.0013
  4.0151   4.0352   4.0799   4.1190   4.1353   4.1575   4.1926   4.2066
  4.2332   4.2984   4.3315   4.3532   4.3685   4.3829   4.4390   4.5199
  4.5259   4.5819   4.6719   4.6973   4.7134   4.7539   4.7705   4.8165
  4.8544   4.8734   4.9027   4.9574   4.9876   5.0875   5.1043   5.1420
  5.2207   5.2270   5.2365   5.2476   5.2636   5.2664   5.2837   5.2951
  5.3130   5.3286   5.3377   5.3688   5.3863   5.4010   5.4235   5.4981
  5.5134   5.5251   5.5339   5.5662   5.5938   5.5987   5.6133   5.6344
  5.6538   5.6823   5.7070   5.7212   5.7406   5.8052   5.8253   5.8871
  5.9199   5.9495   5.9655   5.9749   6.0164   6.0406   6.0857   6.0951
  6.1118   6.1714   6.2156   6.2411   6.2487   6.2670   6.2682   6.2814
  6.2880   6.2920   6.3208   6.3295   6.3653   6.3672   6.3993   6.4315
  6.4978   6.5692   6.5846   6.6219   6.6273   6.6458   6.6787   6.7009
  6.7251   6.7337   6.7528   6.7589   6.8197   6.8258   6.8685   6.9016
  6.9069   6.9308   6.9649   6.9777   7.0139   7.0877   7.1727   7.2917
  7.3276   7.3440   7.3934   7.4093   7.4301   7.4739   7.5025   7.5113
  7.5514   7.5846   7.6731  14.7124  14.8974  15.0427  23.6585  23.7362
 23.8331  23.8922  44.2080  44.2826  44.3218  44.3316  44.3770  44.5595
 --------------------------------------------------------------
 
          Ground-State Mulliken Net Atomic Charges

     Atom                 Charge (a.u.)
  ----------------------------------------
      1 C                     0.373352
      2 C                     0.187011
      3 O                    -0.063947
      4 C                     0.829795
      5 O                    -0.718722
      6 O                    -0.693960
      7 Li                    0.887135
      8 H                     0.022749
      9 H                     0.022833
     10 H                     0.075522
     11 H                     0.004627
     12 O                    -0.856090
     13 C                     1.128733
     14 O                    -0.855815
     15 O                    -1.036036
     16 Li                    0.845365
     17 Li                    0.847447
  ----------------------------------------
  Sum of atomic charges =     1.000000

  Building new vdw surfaces
         Merz-Kollman RESP Net Atomic Charges

     Atom                 Charge (a.u.)
  ----------------------------------------
      1 C                    -0.100349
      2 C                     0.015164
      3 O                    -0.189386
      4 C                     0.762607
      5 O                    -0.642883
      6 O                    -0.642883
      7 Li                    0.876152
      8 H                     0.238868
      9 H                     0.238868
     10 H                     0.188358
     11 H                     0.188358
     12 O                    -0.795172
     13 C                     0.862335
     14 O                    -0.812684
     15 O                    -0.947518
     16 Li                    0.880426
     17 Li                    0.879738
  ----------------------------------------
  Sum of atomic charges =     1.000000

  Related Dipole Moment =    24.4005 (X -0.5419 Y 22.2700 Z  9.9569)

 -----------------------------------------------------------------
                    Cartesian Multipole Moments
 -----------------------------------------------------------------
    Charge (ESU x 10^10)
                 4.8032
    Dipole Moment (Debye)
         X      -0.5636      Y      22.2787      Z      10.0211
       Tot      24.4352
    Quadrupole Moments (Debye-Ang)
        XX     -23.3572     XY     -38.3161     YY      89.1350
        XZ       1.4899     YZ      22.2752     ZZ     -11.9575
    Octopole Moments (Debye-Ang^2)
       XXX     -29.8041    XXY     -92.4081    XYY    -318.9258
       YYY     288.1423    XXZ      22.4046    XYZ     -83.4939
       YYZ      32.5076    XZZ     -35.7642    YZZ     -97.5214
       ZZZ     -21.2893
    Hexadecapole Moments (Debye-Ang^3)
      XXXX   -1015.3452   XXXY      85.0154   XXYY    -419.3586
      XYYY   -1958.4329   YYYY     -83.1826   XXXZ      24.3964
      XXYZ     -28.4347   XYYZ    -478.5209   YYYZ    -426.6937
      XXZZ      49.9135   XYZZ    -347.1939   YYZZ    -581.3837
      XZZZ    -159.3885   YZZZ    -175.2402   ZZZZ    -118.9386
 -----------------------------------------------------------------
 Calculating analytic gradient of the SCF energy
 Gradient of CDS energy
            1           2           3           4           5           6
    1  -0.0008010   0.0010193  -0.0007126   0.0005599  -0.0002675   0.0000892
    2  -0.0007347   0.0010271   0.0000539   0.0002251  -0.0000589  -0.0001504
    3  -0.0005800  -0.0002317   0.0005512  -0.0006589   0.0001449   0.0003081
            7           8           9          10          11          12
    1   0.0000054   0.0001214  -0.0000431  -0.0000249  -0.0000789   0.0000560
    2  -0.0000176   0.0003922   0.0002189  -0.0004943  -0.0002266   0.0001276
    3   0.0000135   0.0001463   0.0001831   0.0000827   0.0001579  -0.0000780
           13          14          15          16          17
    1   0.0001525   0.0000274  -0.0000979  -0.0000054   0.0000003
    2  -0.0004050  -0.0000658   0.0000954  -0.0000079   0.0000209
    3  -0.0002996   0.0002200   0.0000317   0.0000330  -0.0000243
 Gradient of SCF Energy
            1           2           3           4           5           6
    1   0.0295406  -0.0199011  -0.0005653   0.0112903   0.0017083  -0.0047877
    2   0.0085558  -0.0383656  -0.0017512  -0.0003369   0.0104025  -0.0126976
    3   0.0084771   0.0011477  -0.0051991  -0.0001196   0.0097641  -0.0108454
            7           8           9          10          11          12
    1   0.0005679  -0.0188312  -0.0217483   0.0087554   0.0166034  -0.0010604
    2  -0.0020541  -0.0064764   0.0053688   0.0106667   0.0272200  -0.0069904
    3   0.0053460   0.0210155  -0.0316752   0.0284107  -0.0279814   0.0027786
           13          14          15          16          17
    1  -0.0111503   0.0013982   0.0098191  -0.0015137  -0.0001253
    2   0.0172033  -0.0025333  -0.0116291  -0.0002922   0.0037097
    3   0.0093043  -0.0063194  -0.0049760   0.0049140  -0.0040420
 Max gradient component =       3.837E-02
 RMS gradient           =       1.376E-02
 Computing fast CPCM-SWIG gradient
 Updating gradient with PCM contributions...
 -- total gradient after adding PCM contribution --
---------------------------------------------------
  Atom         X              Y              Z     
---------------------------------------------------
   1      -0.000966      -0.000405       0.000082
   2       0.000611       0.000332       0.000173
   3       0.000002      -0.000021      -0.000039
   4      -0.000077       0.000005      -0.000035
   5       0.000017       0.000015       0.000003
   6       0.000013       0.000018      -0.000005
   7       0.000001       0.000001      -0.000004
   8       0.000219       0.000021      -0.000220
   9       0.000204      -0.000020       0.000102
  10      -0.000007       0.000010      -0.000024
  11      -0.000008      -0.000005      -0.000009
  12       0.000133       0.000003      -0.000416
  13      -0.000025       0.000107       0.000243
  14       0.000033      -0.000073       0.000039
  15      -0.000136       0.000039       0.000087
  16       0.000001      -0.000009      -0.000002
  17      -0.000015      -0.000016       0.000024
---------------------------------------------------
 Number of fixed atoms: 0
 Gradient time:  CPU 1332.75 s  wall 62.86 s
 ----------------------------------------------------------------
             Standard Nuclear Orientation (Angstroms)
    I     Atom           X                Y                Z
 ----------------------------------------------------------------
    1      C       0.1200291637     4.1638651696     0.1357149666
    2      C       1.3437141778     4.9041354413     0.3505768930
    3      O       1.5475550705     3.4534369007     0.0815922108
    4      C       1.8652784796     2.5646665299     1.2105175431
    5      O       2.2404567952     3.1015876209     2.2515095653
    6      O       1.7291328026     1.3759969662     0.9332724528
    7      Li      2.3569323303     1.1811043677     2.8017789312
    8      H      -0.4364696167     3.8059532231     0.9934262555
    9      H      -0.3110916115     4.0849305965    -0.8515049658
   10      H       1.6170241326     5.1842359505     1.3600817599
   11      H       1.7697157471     5.4857335823    -0.4581507529
   12      O      -1.5223826220     5.9827822809     0.4087421822
   13      C      -1.9696834802     5.9506920919     1.6084697264
   14      O      -1.6701218899     5.0643776844     2.4706304592
   15      O      -2.8049667580     6.9092731030     1.9686630142
   16      Li     -2.8159350003     6.0163950753     3.6127145495
   17      Li     -2.5813177207     7.5231334156     0.2192552091
 ----------------------------------------------------------------
 Nuclear Repulsion Energy =         612.47127427 hartrees
 There are       42 alpha and       42 beta electrons
 Discretize the solute cavity surface with Lebedev spheres
	Using 110 Lebedev grid points for each H atom
	Using 194 Lebedev grid points for other atoms
	Atomic van der Waals radii will be scaled by 1.20
 Remove points where switching function is < 1.0e-08
 Keep 1227 surface tesserae and discard 1735 interior tesserae
 Molecular Surface Area = 263.518 Angst**2
 Requested basis set is def2-TZVPPD
 There are 194 shells and 522 basis functions
 A cutoff of  1.0D-14 yielded  16566 shell pairs
 There are    121314 function pairs (    153576 Cartesian)
 Smallest overlap matrix eigenvalue = 3.26E-06
 Guess MOs from SCF MO coefficient file

 -----------------------------------------------------------------------
  General SCF calculation program by
  Eric Jon Sundstrom, Paul Horn, Yuezhi Mao, Dmitri Zuev, Alec White,
  David Stuck, Shaama M.S., Shane Yost, Joonho Lee, David Small,
  Daniel Levine, Susi Lehtola, Hugh Burton, Evgeny Epifanovsky,
  Bang C. Huynh
 -----------------------------------------------------------------------
 Exchange:     0.1670 Hartree-Fock + 1.0000 wB97X-V + LR-HF
 Correlation:  1.0000 wB97X-V
 Using SG-3 standard quadrature grid
 Nonlocal Correlation:  VV10 with C = 0.0100 and b = 6.00 and scale = 1.00000
 Grid used for NLC:  SG-1 standard quadrature
 
 Citation of the SMD model:
 Marenich, A.V.; Cramer, C.J.; Truhlar, D.G.
 J. Phys. Chem. B 2009, 113, 6378-6396.
 iSolventCode=           0
 Solvent: other                                                           
 
 vradii
            1           2           3           4           5           6
    1   1.8500000   1.8500000   2.2940000   1.8500000   2.2940000   2.2940000
            7           8           9          10          11          12
    1   2.1476001   1.2000000   1.2000000   1.2000000   1.2000000   2.2940000
           13          14          15          16          17
    1   1.8500000   2.2940000   2.2940000   2.1476001   2.1476001
 using 40 threads for integral computing
 -------------------------------------------------------
 OpenMP Integral computing Module                
 Release: version 1.0, May 2013, Q-Chem Inc. Pittsburgh 
 -------------------------------------------------------
 using 40 threads for integral computing
 -------------------------------------------------------
 OpenMP Integral computing Module                
 Release: version 1.0, May 2013, Q-Chem Inc. Pittsburgh 
 -------------------------------------------------------
 -------------------------------------------------------
 OpenMP BLAS3 based DFT computing Module                
 Release: version 1.0, May 2013, Q-Chem Inc. Pittsburgh 
 -------------------------------------------------------
 -------------------------------------------------------
 OpenMP BLAS3 based DFT computing Module                
 Release: version 1.0, May 2013, Q-Chem Inc. Pittsburgh 
 -------------------------------------------------------
 -------------------------------------------------------
 OpenMP BLAS3 based DFT computing Module                
 Release: version 1.0, May 2013, Q-Chem Inc. Pittsburgh 
 -------------------------------------------------------
 A restricted SCF calculation will be
 performed using Roothaan-Hall, DIIS
 SCF converges when DIIS error is below 1.0e-08
 ---------------------------------------
  Cycle       Energy         DIIS error
 ---------------------------------------
    1    -637.6372195382      1.22e-04  Roothaan Step
 ---------------------------------------
  Cycle       Energy         DIIS error
 ---------------------------------------
    1    -628.8635761456      1.31e-04  
    2    -628.8642152059      1.02e-04  
    3    -628.8644336171      3.52e-05  
    4    -628.8644660607      9.96e-06  
    5    -628.8644694254      4.66e-06  
    6    -628.8644700509      1.23e-06  
    7    -628.8644701153      3.81e-07  
    8    -628.8644701213      1.41e-07  
    9    -628.8644701221      6.97e-08  
   10    -628.8644701222      1.17e-08  
   11    -628.8644701222      3.57e-09  Convergence criterion met
 ---------------------------------------
 SCF time:   CPU 4889.10s  wall 192.00s 
(3)  G-ENP(liq) elect-nuc-pol free energy of system     -628.864470122 a.u.
(4)  G-CDS(liq) cavity-dispersion-solvent structure 
     free energy                                               -2.5748 kcal/mol
(6)  G-S(liq) free energy of system                     -628.868573281 a.u.
 SCF   energy in the final basis set =     -628.8644701222
 Total energy in the final basis set =     -628.8685732810
 
 --------------------------------------------------------------
 
                    Orbital Energies (a.u.)
 --------------------------------------------------------------
 
 Alpha MOs
 -- Occupied --
-19.3467 -19.2384 -19.2348 -19.1772 -19.1747 -19.1712 -10.4736 -10.4041
-10.3814 -10.3709  -2.1465  -2.0937  -2.0930  -1.3124  -1.2332  -1.2111
 -1.1677  -1.0908  -1.0760  -0.9417  -0.8020  -0.7462  -0.6758  -0.6530
 -0.6312  -0.6217  -0.6017  -0.5818  -0.5692  -0.5666  -0.5611  -0.5437
 -0.5298  -0.5009  -0.4765  -0.4380  -0.4354  -0.4332  -0.4015  -0.3894
 -0.3871  -0.3681
 -- Virtual --
  0.0174   0.0204   0.0252   0.0339   0.0391   0.0398   0.0431   0.0486
  0.0526   0.0545   0.0621   0.0727   0.0764   0.0843   0.0894   0.1035
  0.1098   0.1121   0.1177   0.1193   0.1280   0.1300   0.1324   0.1378
  0.1386   0.1448   0.1462   0.1514   0.1529   0.1560   0.1632   0.1636
  0.1675   0.1710   0.1759   0.1833   0.1854   0.1888   0.1909   0.2020
  0.2111   0.2169   0.2231   0.2296   0.2354   0.2403   0.2480   0.2554
  0.2573   0.2718   0.2751   0.2834   0.2889   0.2960   0.3024   0.3082
  0.3121   0.3134   0.3189   0.3234   0.3341   0.3388   0.3437   0.3528
  0.3564   0.3595   0.3657   0.3731   0.3768   0.3814   0.3829   0.3880
  0.3929   0.3998   0.4057   0.4079   0.4107   0.4156   0.4198   0.4249
  0.4301   0.4321   0.4354   0.4381   0.4429   0.4492   0.4554   0.4636
  0.4685   0.4750   0.4784   0.4855   0.4895   0.4912   0.4938   0.5003
  0.5072   0.5082   0.5129   0.5176   0.5219   0.5272   0.5291   0.5357
  0.5388   0.5486   0.5504   0.5596   0.5630   0.5732   0.5774   0.5827
  0.5914   0.5919   0.5981   0.6126   0.6132   0.6228   0.6271   0.6342
  0.6387   0.6402   0.6492   0.6555   0.6618   0.6627   0.6732   0.6757
  0.6876   0.6998   0.7060   0.7111   0.7123   0.7249   0.7279   0.7381
  0.7410   0.7452   0.7526   0.7569   0.7639   0.7702   0.7794   0.7886
  0.7911   0.7991   0.8116   0.8150   0.8235   0.8271   0.8288   0.8348
  0.8521   0.8636   0.8678   0.8761   0.8822   0.8876   0.8964   0.9028
  0.9090   0.9158   0.9193   0.9304   0.9517   0.9572   0.9661   0.9731
  0.9806   0.9900   0.9983   1.0055   1.0201   1.0385   1.0436   1.0513
  1.0578   1.0640   1.0769   1.0833   1.0920   1.1034   1.1175   1.1351
  1.1411   1.1507   1.1683   1.2045   1.2150   1.2225   1.2311   1.2490
  1.2561   1.2622   1.2669   1.2747   1.2806   1.2866   1.2927   1.3020
  1.3289   1.3477   1.3549   1.3607   1.3751   1.3904   1.4074   1.4169
  1.4259   1.4337   1.4344   1.4584   1.4636   1.4921   1.4984   1.5130
  1.5384   1.5683   1.6005   1.6065   1.6284   1.6360   1.6725   1.6891
  1.7298   1.7685   1.7749   1.7976   1.8554   1.8596   1.8654   1.8733
  1.8908   1.9121   1.9158   1.9376   1.9389   1.9568   1.9698   1.9764
  1.9945   2.0108   2.0121   2.0215   2.0292   2.0614   2.0742   2.0889
  2.0973   2.1317   2.1560   2.1705   2.1991   2.2047   2.2358   2.2441
  2.2540   2.2581   2.2784   2.2931   2.3119   2.3469   2.3866   2.3999
  2.4279   2.4316   2.4593   2.4705   2.4898   2.5010   2.5175   2.5601
  2.6114   2.6517   2.6926   2.7330   2.7501   2.7874   2.8134   2.8704
  2.9096   2.9433   2.9569   2.9916   3.0029   3.0121   3.0254   3.0280
  3.0451   3.0588   3.0748   3.0965   3.1010   3.1483   3.1622   3.1803
  3.2147   3.2279   3.2336   3.2545   3.2609   3.2741   3.2913   3.3037
  3.3140   3.3262   3.3384   3.3515   3.3669   3.3765   3.4018   3.4302
  3.4476   3.4626   3.4742   3.5109   3.5257   3.5308   3.5348   3.5457
  3.5479   3.5607   3.5743   3.5893   3.6009   3.6063   3.6125   3.6195
  3.6325   3.6442   3.6591   3.6644   3.6806   3.7034   3.7396   3.7548
  3.7667   3.7773   3.8113   3.8518   3.8782   3.8877   3.9402   4.0014
  4.0152   4.0356   4.0798   4.1191   4.1353   4.1578   4.1926   4.2068
  4.2332   4.2990   4.3318   4.3536   4.3690   4.3840   4.4391   4.5199
  4.5261   4.5819   4.6717   4.6973   4.7134   4.7538   4.7704   4.8158
  4.8540   4.8733   4.9025   4.9571   4.9874   5.0874   5.1038   5.1420
  5.2204   5.2268   5.2365   5.2476   5.2636   5.2664   5.2837   5.2951
  5.3130   5.3286   5.3376   5.3690   5.3863   5.4010   5.4238   5.4980
  5.5134   5.5250   5.5339   5.5662   5.5938   5.5988   5.6132   5.6345
  5.6538   5.6812   5.7066   5.7207   5.7408   5.8057   5.8258   5.8871
  5.9199   5.9496   5.9656   5.9750   6.0164   6.0409   6.0857   6.0950
  6.1118   6.1714   6.2157   6.2410   6.2485   6.2670   6.2682   6.2814
  6.2880   6.2920   6.3208   6.3293   6.3651   6.3671   6.3993   6.4315
  6.4978   6.5693   6.5846   6.6219   6.6273   6.6457   6.6787   6.7009
  6.7251   6.7336   6.7528   6.7588   6.8197   6.8258   6.8685   6.9016
  6.9070   6.9308   6.9649   6.9777   7.0139   7.0877   7.1727   7.2917
  7.3276   7.3440   7.3935   7.4093   7.4301   7.4739   7.5028   7.5114
  7.5514   7.5846   7.6730  14.7124  14.8974  15.0426  23.6601  23.7345
 23.8331  23.8919  44.2080  44.2826  44.3218  44.3316  44.3770  44.5597
 --------------------------------------------------------------
 
          Ground-State Mulliken Net Atomic Charges

     Atom                 Charge (a.u.)
  ----------------------------------------
      1 C                     0.373359
      2 C                     0.187412
      3 O                    -0.063875
      4 C                     0.829594
      5 O                    -0.718705
      6 O                    -0.693926
      7 Li                    0.887148
      8 H                     0.022437
      9 H                     0.022881
     10 H                     0.075448
     11 H                     0.004629
     12 O                    -0.856065
     13 C                     1.128662
     14 O                    -0.855769
     15 O                    -1.036036
     16 Li                    0.845364
     17 Li                    0.847442
  ----------------------------------------
  Sum of atomic charges =     1.000000

  Building new vdw surfaces
         Merz-Kollman RESP Net Atomic Charges

     Atom                 Charge (a.u.)
  ----------------------------------------
      1 C                    -0.099301
      2 C                     0.015265
      3 O                    -0.189535
      4 C                     0.762542
      5 O                    -0.642850
      6 O                    -0.642850
      7 Li                    0.876171
      8 H                     0.238379
      9 H                     0.238379
     10 H                     0.188331
     11 H                     0.188331
     12 O                    -0.795114
     13 C                     0.862257
     14 O                    -0.812647
     15 O                    -0.947494
     16 Li                    0.880418
     17 Li                    0.879720
  ----------------------------------------
  Sum of atomic charges =     1.000000

  Related Dipole Moment =    24.4014 (X -0.5406 Y 22.2706 Z  9.9576)

 -----------------------------------------------------------------
                    Cartesian Multipole Moments
 -----------------------------------------------------------------
    Charge (ESU x 10^10)
                 4.8032
    Dipole Moment (Debye)
         X      -0.5623      Y      22.2793      Z      10.0217
       Tot      24.4360
    Quadrupole Moments (Debye-Ang)
        XX     -23.3563     XY     -38.3114     YY      89.1432
        XZ       1.4912     YZ      22.2779     ZZ     -11.9577
    Octopole Moments (Debye-Ang^2)
       XXX     -29.8164    XXY     -92.4131    XYY    -318.9093
       YYY     288.1940    XXZ      22.4065    XYZ     -83.4897
       YYZ      32.5214    XZZ     -35.7658    YZZ     -97.5280
       ZZZ     -21.2868
    Hexadecapole Moments (Debye-Ang^3)
      XXXX   -1015.3485   XXXY      84.9562   XXYY    -419.4096
      XYYY   -1958.3880   YYYY     -82.9800   XXXZ      24.4014
      XXYZ     -28.4299   XYYZ    -478.5043   YYYZ    -426.6234
      XXZZ      49.9169   XYZZ    -347.2023   YYZZ    -581.4317
      XZZZ    -159.3834   YZZZ    -175.2338   ZZZZ    -118.9402
 -----------------------------------------------------------------
 Calculating analytic gradient of the SCF energy
 Gradient of CDS energy
            1           2           3           4           5           6
    1  -0.0007979   0.0010175  -0.0007124   0.0005588  -0.0002674   0.0000901
    2  -0.0007319   0.0010255   0.0000539   0.0002248  -0.0000589  -0.0001508
    3  -0.0005793  -0.0002316   0.0005510  -0.0006595   0.0001449   0.0003085
            7           8           9          10          11          12
    1   0.0000054   0.0001205  -0.0000434  -0.0000249  -0.0000789   0.0000559
    2  -0.0000176   0.0003919   0.0002186  -0.0004941  -0.0002265   0.0001273
    3   0.0000135   0.0001470   0.0001822   0.0000827   0.0001578  -0.0000781
           13          14          15          16          17
    1   0.0001525   0.0000274  -0.0000979  -0.0000054   0.0000003
    2  -0.0004050  -0.0000658   0.0000954  -0.0000079   0.0000209
    3  -0.0002996   0.0002200   0.0000317   0.0000330  -0.0000243
 Gradient of SCF Energy
            1           2           3           4           5           6
    1   0.0310206  -0.0206037  -0.0007088   0.0113235   0.0017089  -0.0047968
    2   0.0096834  -0.0389559  -0.0017806  -0.0003469   0.0104051  -0.0127110
    3   0.0084138   0.0010404  -0.0051548  -0.0001437   0.0097707  -0.0108352
            7           8           9          10          11          12
    1   0.0005684  -0.0191673  -0.0219514   0.0087144   0.0165342  -0.0010723
    2  -0.0020534  -0.0067674   0.0052074   0.0106528   0.0272143  -0.0070093
    3   0.0053443   0.0213986  -0.0319069   0.0284090  -0.0279910   0.0027791
           13          14          15          16          17
    1  -0.0111486   0.0014004   0.0098164  -0.0015134  -0.0001245
    2   0.0172138  -0.0025399  -0.0116315  -0.0002913   0.0037103
    3   0.0092988  -0.0063193  -0.0049764   0.0049142  -0.0040416
 Max gradient component =       3.896E-02
 RMS gradient           =       1.392E-02
 Computing fast CPCM-SWIG gradient
 Updating gradient with PCM contributions...
 -- total gradient after adding PCM contribution --
---------------------------------------------------
  Atom         X              Y              Z     
---------------------------------------------------
   1       0.000494       0.000551       0.000024
   2      -0.000130      -0.000188       0.000069
   3      -0.000133      -0.000014       0.000009
   4      -0.000060       0.000007      -0.000064
   5       0.000020       0.000016       0.000009
   6       0.000011       0.000004       0.000004
   7       0.000000       0.000001      -0.000005
   8      -0.000111      -0.000253       0.000182
   9       0.000010      -0.000149      -0.000153
  10      -0.000029      -0.000000      -0.000020
  11      -0.000052      -0.000013      -0.000026
  12       0.000120      -0.000010      -0.000414
  13      -0.000026       0.000111       0.000238
  14       0.000036      -0.000077       0.000037
  15      -0.000135       0.000040       0.000089
  16       0.000001      -0.000008      -0.000002
  17      -0.000016      -0.000016       0.000024
---------------------------------------------------
 Number of fixed atoms: 0
 Gradient time:  CPU 1332.34 s  wall 62.55 s
 ----------------------------------------------------------------
             Standard Nuclear Orientation (Angstroms)
    I     Atom           X                Y                Z
 ----------------------------------------------------------------
    1      C       0.1200291637     4.1618651696     0.1357149666
    2      C       1.3437141778     4.9041354413     0.3505768930
    3      O       1.5475550705     3.4534369007     0.0815922108
    4      C       1.8652784796     2.5646665299     1.2105175431
    5      O       2.2404567952     3.1015876209     2.2515095653
    6      O       1.7291328026     1.3759969662     0.9332724528
    7      Li      2.3569323303     1.1811043677     2.8017789312
    8      H      -0.4364696167     3.8059532231     0.9934262555
    9      H      -0.3110916115     4.0849305965    -0.8515049658
   10      H       1.6170241326     5.1842359505     1.3600817599
   11      H       1.7697157471     5.4857335823    -0.4581507529
   12      O      -1.5223826220     5.9827822809     0.4087421822
   13      C      -1.9696834802     5.9506920919     1.6084697264
   14      O      -1.6701218899     5.0643776844     2.4706304592
   15      O      -2.8049667580     6.9092731030     1.9686630142
   16      Li     -2.8159350003     6.0163950753     3.6127145495
   17      Li     -2.5813177207     7.5231334156     0.2192552091
 ----------------------------------------------------------------
 Nuclear Repulsion Energy =         612.46851924 hartrees
 There are       42 alpha and       42 beta electrons
 Discretize the solute cavity surface with Lebedev spheres
	Using 110 Lebedev grid points for each H atom
	Using 194 Lebedev grid points for other atoms
	Atomic van der Waals radii will be scaled by 1.20
 Remove points where switching function is < 1.0e-08
 Keep 1227 surface tesserae and discard 1735 interior tesserae
 Molecular Surface Area = 263.520 Angst**2
 Requested basis set is def2-TZVPPD
 There are 194 shells and 522 basis functions
 A cutoff of  1.0D-14 yielded  16566 shell pairs
 There are    121314 function pairs (    153576 Cartesian)
 Smallest overlap matrix eigenvalue = 3.27E-06
 Guess MOs from SCF MO coefficient file

 -----------------------------------------------------------------------
  General SCF calculation program by
  Eric Jon Sundstrom, Paul Horn, Yuezhi Mao, Dmitri Zuev, Alec White,
  David Stuck, Shaama M.S., Shane Yost, Joonho Lee, David Small,
  Daniel Levine, Susi Lehtola, Hugh Burton, Evgeny Epifanovsky,
  Bang C. Huynh
 -----------------------------------------------------------------------
 Exchange:     0.1670 Hartree-Fock + 1.0000 wB97X-V + LR-HF
 Correlation:  1.0000 wB97X-V
 Using SG-3 standard quadrature grid
 Nonlocal Correlation:  VV10 with C = 0.0100 and b = 6.00 and scale = 1.00000
 Grid used for NLC:  SG-1 standard quadrature
 
 Citation of the SMD model:
 Marenich, A.V.; Cramer, C.J.; Truhlar, D.G.
 J. Phys. Chem. B 2009, 113, 6378-6396.
 iSolventCode=           0
 Solvent: other                                                           
 
 vradii
            1           2           3           4           5           6
    1   1.8500000   1.8500000   2.2940000   1.8500000   2.2940000   2.2940000
            7           8           9          10          11          12
    1   2.1476001   1.2000000   1.2000000   1.2000000   1.2000000   2.2940000
[...]
 C         -0.002  0.008  0.008   -0.016  0.027  0.004   -0.053 -0.038 -0.103
 O          0.004  0.004  0.009    0.003  0.038 -0.008   -0.064  0.193 -0.235
 O         -0.004  0.018 -0.018   -0.013  0.050 -0.066   -0.024 -0.092 -0.096
 Li         0.002 -0.002  0.007    0.017 -0.040  0.061    0.026 -0.103  0.094
 H         -0.000 -0.008 -0.010    0.005  0.023  0.007   -0.044  0.222  0.095
 H          0.007 -0.001 -0.008    0.051 -0.064 -0.004    0.118 -0.464 -0.034
 H          0.007 -0.024  0.004    0.010 -0.049  0.027   -0.288  0.376 -0.038
 H          0.022 -0.016  0.006    0.079 -0.047  0.027    0.236 -0.332 -0.095
 O         -0.072  0.007  0.173    0.045  0.001 -0.109    0.000 -0.006  0.010
 C          0.002 -0.076  0.136    0.063 -0.055 -0.055   -0.013  0.014  0.011
 O          0.057 -0.155  0.138    0.012 -0.026  0.023    0.007  0.002 -0.017
 O          0.017 -0.041  0.035    0.098 -0.107 -0.051   -0.016  0.010  0.021
 Li         0.173  0.020 -0.468   -0.310  0.023  0.735    0.008  0.007 -0.033
 Li        -0.194  0.552 -0.544   -0.150  0.376 -0.324    0.005 -0.011  0.007
 TransDip   0.007  0.253 -0.479   -0.183  0.138  0.242   -0.145  0.099 -0.018

 Mode:                22                     23                     24
 Frequency:       717.14                 773.91                 806.03
 Force Cnst:      4.5083                 5.1707                 0.7297
 Red. Mass:      14.8784                14.6530                 1.9063
 IR Active:          YES                    YES                    YES
 IR Intens:       38.072                 68.989                 10.811
 Raman Active:       YES                    YES                    YES
               X      Y      Z        X      Y      Z        X      Y      Z
 C         -0.040  0.019  0.010    0.011  0.004 -0.003   -0.005 -0.006 -0.025
 C          0.007 -0.043 -0.005   -0.002  0.019  0.001    0.008  0.007 -0.015
 O          0.043  0.020  0.019   -0.017 -0.010 -0.011   -0.051  0.005 -0.008
 C          0.032 -0.023  0.004   -0.011  0.019 -0.016    0.220  0.022 -0.109
 O         -0.012  0.023 -0.010    0.001 -0.019  0.002   -0.067 -0.032  0.020
 O         -0.013 -0.017 -0.008    0.006  0.011  0.013   -0.055  0.021  0.050
 Li        -0.001  0.006 -0.009    0.002 -0.005  0.006    0.012 -0.006  0.003
 H         -0.034  0.003  0.016    0.030  0.008  0.012    0.130  0.409  0.242
 H         -0.042 -0.018  0.014    0.009 -0.050  0.004   -0.182 -0.432  0.085
 H         -0.019  0.005 -0.011   -0.031 -0.017  0.019   -0.384 -0.184  0.148
 H         -0.022 -0.028 -0.010    0.036  0.025  0.026    0.411  0.097  0.266
 O         -0.212  0.453 -0.297    0.275 -0.246 -0.242   -0.001 -0.001  0.004
 C          0.139 -0.163 -0.067    0.016  0.097 -0.212   -0.002  0.002  0.001
 O         -0.271  0.104  0.497   -0.244  0.348 -0.022    0.003 -0.003  0.001
 O          0.264 -0.309 -0.101   -0.047 -0.268  0.611    0.001  0.002 -0.005
 Li         0.128 -0.096 -0.146    0.044  0.061 -0.219    0.000 -0.000 -0.001
 Li         0.114 -0.171  0.029   -0.017  0.129 -0.202   -0.000 -0.002  0.003
 TransDip   0.126 -0.142 -0.055   -0.005  0.132 -0.231    0.098  0.034 -0.016

 Mode:                25                     26                     27
 Frequency:       829.28                 839.93                 865.97
 Force Cnst:      2.9676                 0.8985                 5.5823
 Red. Mass:       7.3240                 2.1616                12.6344
 IR Active:          YES                    YES                    YES
 IR Intens:      284.797                143.469                 36.561
 Raman Active:       YES                    YES                    YES
               X      Y      Z        X      Y      Z        X      Y      Z
 C         -0.035  0.035  0.002   -0.024  0.006 -0.021   -0.012 -0.013  0.000
 C         -0.002 -0.039 -0.013    0.014 -0.047 -0.032    0.024 -0.026 -0.005
 O         -0.056  0.083 -0.018    0.044  0.081 -0.076   -0.009  0.045  0.004
 C          0.404 -0.308  0.233   -0.163 -0.081  0.166   -0.005  0.004 -0.008
 O         -0.046  0.267  0.108    0.063  0.057  0.010   -0.004 -0.014 -0.009
 O         -0.160 -0.167 -0.183    0.036 -0.048 -0.058    0.006  0.001  0.017
 Li        -0.014  0.074 -0.090   -0.017  0.025 -0.026   -0.000  0.000 -0.001
 H         -0.196 -0.133 -0.184    0.259  0.286  0.287   -0.013 -0.031 -0.007
 H          0.054  0.462 -0.072   -0.364 -0.332  0.156   -0.007 -0.014 -0.002
 H          0.176  0.095 -0.102   -0.355 -0.239  0.124    0.032 -0.016 -0.009
 H         -0.326  0.061 -0.117    0.310  0.174  0.285    0.011 -0.019 -0.007
 O          0.018 -0.027  0.003    0.003 -0.004  0.003   -0.183 -0.131 -0.071
 C          0.010  0.006 -0.008    0.000  0.001 -0.004    0.701  0.505  0.275
 O          0.000  0.004 -0.015    0.001 -0.000 -0.002   -0.185 -0.133 -0.072
 O         -0.010  0.001  0.015    0.001 -0.000 -0.000   -0.181 -0.131 -0.073
 Li        -0.004  0.003  0.007   -0.001  0.000  0.001    0.024  0.018  0.011
 Li        -0.006  0.013 -0.009   -0.001  0.001  0.000    0.024  0.019  0.009
 TransDip   0.276 -0.400  0.237   -0.000 -0.286  0.255    0.166  0.082  0.056

 Mode:                28                     29                     30
 Frequency:       879.64                1056.24                1069.63
 Force Cnst:      3.5423                 0.6826                10.0448
 Red. Mass:       7.7700                 1.0385                14.9014
 IR Active:          YES                    YES                    YES
 IR Intens:      218.546                  3.539                 34.478
 Raman Active:       YES                    YES                    YES
               X      Y      Z        X      Y      Z        X      Y      Z
 C         -0.119 -0.142 -0.031   -0.010 -0.004  0.035    0.014 -0.023 -0.009
 C          0.230 -0.302 -0.043    0.002 -0.001 -0.013   -0.006 -0.015  0.004
 O         -0.117  0.502  0.066    0.006  0.017 -0.012    0.004  0.007  0.001
 C          0.017 -0.007 -0.053   -0.014 -0.005  0.008    0.003  0.001 -0.001
 O         -0.046 -0.105 -0.076    0.002  0.002 -0.005   -0.002 -0.003 -0.002
 O          0.040 -0.011  0.146    0.003 -0.007 -0.000    0.000  0.004  0.002
 Li        -0.006  0.012 -0.024   -0.000  0.001 -0.001    0.000 -0.000 -0.000
 H         -0.045 -0.448 -0.112   -0.392  0.404 -0.033    0.012  0.053  0.021
 H         -0.082  0.018 -0.065    0.468 -0.400 -0.141   -0.075  0.193  0.011
 H          0.398 -0.118 -0.141    0.256 -0.290 -0.002   -0.061  0.075 -0.007
 H          0.012 -0.251 -0.127   -0.253  0.258  0.037    0.027 -0.084 -0.026
 O          0.024 -0.002  0.009   -0.000 -0.002  0.007   -0.180 -0.019  0.492
 C         -0.030 -0.031 -0.027   -0.005  0.006 -0.001   -0.109  0.132  0.028
 O          0.013  0.007 -0.002   -0.001  0.002 -0.000   -0.117  0.355 -0.352
 O          0.002  0.013  0.009    0.005 -0.006 -0.003    0.382 -0.440 -0.161
 Li        -0.006 -0.000  0.011    0.001  0.000 -0.002   -0.011  0.017 -0.005
 Li        -0.006  0.009 -0.008   -0.000 -0.001  0.002   -0.009  0.004  0.015
 TransDip   0.212 -0.423 -0.012   -0.032  0.013  0.050   -0.117  0.142  0.037

 Mode:                31                     32                     33
 Frequency:      1145.93                1166.35                1216.20
 Force Cnst:      1.0270                 1.0944                 1.2054
 Red. Mass:       1.3274                 1.3654                 1.3831
 IR Active:          YES                    YES                    YES
 IR Intens:       13.567                 15.927                  3.976
 Raman Active:       YES                    YES                    YES
               X      Y      Z        X      Y      Z        X      Y      Z
 C          0.079 -0.022  0.005   -0.045  0.007  0.020    0.006  0.022 -0.139
 C         -0.048 -0.112  0.034    0.031  0.018  0.105   -0.003 -0.005  0.116
 O          0.015  0.025 -0.031   -0.015  0.010 -0.107   -0.005 -0.010  0.015
 C          0.001 -0.006  0.010   -0.004 -0.006  0.013    0.008  0.002 -0.010
 O         -0.007 -0.020 -0.020    0.011  0.009  0.026    0.000  0.005  0.008
 O          0.006  0.032  0.014   -0.002 -0.008 -0.007   -0.003 -0.004 -0.002
 Li        -0.001  0.002 -0.003   -0.000  0.000 -0.000    0.000 -0.001  0.000
 H         -0.123  0.658  0.163   -0.153 -0.051 -0.065    0.349  0.227  0.159
 H          0.045  0.421 -0.004    0.217 -0.491 -0.055   -0.414 -0.301  0.058
 H         -0.329  0.298 -0.010   -0.026  0.585 -0.026    0.517  0.036 -0.030
 H         -0.256 -0.202 -0.123    0.257 -0.475 -0.124   -0.455 -0.053 -0.152
 O          0.005 -0.007 -0.005   -0.000  0.002  0.001   -0.000 -0.000  0.001
 C          0.000  0.005 -0.011   -0.002  0.001  0.002    0.001 -0.001  0.001
 O          0.002 -0.009  0.011    0.000  0.001 -0.001   -0.002  0.001 -0.001
 O         -0.004  0.005  0.002    0.001 -0.001 -0.001    0.000 -0.000 -0.000
 Li         0.000  0.000 -0.000    0.000  0.000 -0.000    0.000 -0.000 -0.000
 Li        -0.000 -0.000  0.001    0.000 -0.000  0.001   -0.000  0.000 -0.000
 TransDip   0.032 -0.048  0.103    0.001 -0.073  0.105   -0.024  0.016 -0.057

 Mode:                34                     35                     36
 Frequency:      1228.25                1331.27                1371.63
 Force Cnst:      1.1597                 1.9226                 9.5274
 Red. Mass:       1.3047                 1.8412                 8.5951
 IR Active:          YES                    YES                    YES
 IR Intens:        9.718                 13.118                518.814
 Raman Active:       YES                    YES                    YES
               X      Y      Z        X      Y      Z        X      Y      Z
 C         -0.063 -0.099 -0.013   -0.122 -0.110 -0.024    0.017  0.090  0.009
 C         -0.055  0.075  0.012    0.191  0.063  0.021   -0.113  0.022  0.006
 O          0.049  0.013 -0.003    0.016 -0.053  0.001    0.035 -0.052  0.015
 C         -0.002  0.005 -0.008    0.001 -0.010  0.021    0.123 -0.293  0.355
 O          0.005  0.008  0.012   -0.008 -0.013 -0.025   -0.125 -0.160 -0.345
 O         -0.002 -0.012 -0.005    0.005  0.030  0.004    0.036  0.380  0.073
 Li         0.000 -0.001  0.001   -0.000  0.001 -0.001   -0.009  0.027 -0.029
 H         -0.257  0.325  0.057   -0.408  0.138 -0.078   -0.030 -0.192 -0.154
 H         -0.181  0.331 -0.001   -0.387  0.129  0.051   -0.068 -0.295  0.077
 H          0.498 -0.202 -0.053   -0.116  0.463  0.009    0.369 -0.036 -0.103
 H          0.516 -0.314  0.027   -0.165  0.538  0.147    0.296 -0.133  0.111
 O          0.004 -0.003 -0.002    0.002 -0.002  0.003   -0.013  0.003  0.028
 C         -0.002  0.006 -0.007    0.003  0.000 -0.010    0.054 -0.057 -0.032
 O          0.001 -0.005  0.007    0.001 -0.002  0.003   -0.010  0.020 -0.014
 O         -0.001  0.001  0.001   -0.001  0.001  0.001   -0.016  0.018  0.008
 Li         0.000  0.000 -0.001   -0.000  0.000  0.001   -0.000 -0.004  0.007
 Li         0.000 -0.001  0.001    0.000 -0.000 -0.000    0.002  0.002 -0.007
 TransDip  -0.002  0.093 -0.035   -0.060  0.095  0.029    0.320 -0.556  0.348

 Mode:                37                     38                     39
 Frequency:      1406.61                1480.45                1524.50
 Force Cnst:     14.5779                 1.4030                 1.9787
 Red. Mass:      12.5055                 1.0865                 1.4450
 IR Active:          YES                    YES                    YES
 IR Intens:      865.132                 23.056                  3.993
 Raman Active:       YES                    YES                    YES
               X      Y      Z        X      Y      Z        X      Y      Z
 C          0.006 -0.005 -0.009   -0.066 -0.028 -0.015    0.113  0.046  0.016
 C         -0.002  0.003  0.001   -0.022 -0.029 -0.005   -0.097 -0.104 -0.026
 O         -0.011 -0.001  0.002   -0.012 -0.011 -0.000   -0.007  0.010  0.007
 C          0.021 -0.048  0.060    0.000  0.000  0.004   -0.005  0.031 -0.025
 O         -0.019 -0.022 -0.052   -0.001 -0.001 -0.003    0.005  0.005  0.016
 O          0.005  0.055  0.009    0.000  0.002 -0.000   -0.002 -0.026 -0.003
 Li        -0.001  0.003 -0.004    0.000  0.000  0.000    0.001 -0.001  0.002
 H          0.090 -0.114 -0.005    0.463  0.040  0.355   -0.294 -0.029 -0.290
 H          0.001 -0.012 -0.004    0.432  0.164 -0.244   -0.291 -0.139  0.213
 H          0.063  0.050 -0.030    0.225  0.332 -0.169    0.304  0.393 -0.278
 H          0.035  0.044  0.047    0.150  0.278  0.299    0.206  0.301  0.428
 O          0.140 -0.053 -0.259   -0.002  0.002  0.001    0.001 -0.000 -0.005
 C         -0.539  0.579  0.307    0.005 -0.006 -0.000   -0.001 -0.007  0.014
 O          0.101 -0.200  0.108   -0.002  0.002 -0.001   -0.001  0.004 -0.004
 O          0.171 -0.193 -0.080   -0.002  0.002  0.001    0.000  0.000 -0.001
 Li        -0.008  0.041 -0.055    0.000 -0.000 -0.000    0.001 -0.000 -0.001
 Li        -0.023 -0.002  0.062    0.000 -0.000 -0.000   -0.001  0.001 -0.000
 TransDip  -0.605  0.604  0.397    0.099  0.116  0.018    0.045  0.028  0.036

 Mode:                40                     41                     42
 Frequency:      1572.32                1813.83                3186.12
 Force Cnst:     17.7159                24.6674                 6.3030
 Red. Mass:      12.1628                12.7256                 1.0538
 IR Active:          YES                    YES                    YES
 IR Intens:      907.230                874.405                  2.047
 Raman Active:       YES                    YES                    YES
               X      Y      Z        X      Y      Z        X      Y      Z
 C         -0.005 -0.046 -0.001   -0.005 -0.005 -0.006   -0.005 -0.003  0.001
 C          0.023  0.018  0.007    0.008  0.003  0.017   -0.041 -0.050 -0.006
 O         -0.005  0.010 -0.007   -0.008 -0.017 -0.029   -0.000  0.001 -0.000
 C          0.000 -0.014  0.012    0.194  0.676  0.505   -0.000  0.000 -0.001
 O         -0.001 -0.001 -0.006   -0.097 -0.171 -0.267   -0.000  0.000  0.000
 O          0.001  0.010  0.001   -0.047 -0.326 -0.105   -0.000 -0.000  0.000
 Li        -0.000  0.000 -0.000    0.010  0.033  0.026    0.000  0.000  0.000
 H         -0.037  0.169  0.047    0.028  0.017  0.026    0.063  0.043 -0.097
 H          0.020  0.083 -0.012   -0.003  0.008 -0.009    0.044  0.009  0.097
 H         -0.050 -0.049  0.047   -0.016 -0.048  0.051    0.163  0.168  0.621
 H         -0.025 -0.047 -0.066   -0.011 -0.086 -0.047    0.284  0.385 -0.547
 O          0.083  0.027 -0.262    0.000  0.000 -0.001   -0.000  0.000  0.000
 C         -0.011 -0.400  0.762    0.001 -0.002  0.002   -0.000  0.000 -0.000
 O         -0.074  0.232 -0.237   -0.001  0.001 -0.001    0.000 -0.000  0.000
 O         -0.006  0.036 -0.051   -0.000  0.001 -0.000    0.000 -0.000  0.000
 Li         0.033 -0.027 -0.036    0.000 -0.000 -0.000   -0.000  0.000  0.000
 Li        -0.027  0.045 -0.016    0.000 -0.000  0.000   -0.000 -0.000 -0.000
 TransDip  -0.064 -0.415  0.868    0.205  0.747  0.545    0.037 -0.019  0.020

 Mode:                43                     44                     45
 Frequency:      3194.79                3292.02                3328.47
 Force Cnst:      6.3625                 7.1732                 7.3523
 Red. Mass:       1.0580                 1.1234                 1.1264
 IR Active:          YES                    YES                    YES
 IR Intens:       12.649                  5.387                 30.425
 Raman Active:       YES                    YES                    YES
               X      Y      Z        X      Y      Z        X      Y      Z
 C          0.059  0.029 -0.007    0.001 -0.002  0.017   -0.002  0.012 -0.102
 C         -0.010 -0.011 -0.001    0.006  0.013 -0.100    0.002  0.003 -0.016
 O         -0.001  0.001  0.000    0.000  0.000  0.001   -0.000 -0.000  0.001
 C          0.000 -0.000  0.000   -0.000 -0.001 -0.001    0.001 -0.000  0.000
 O         -0.000  0.000 -0.000   -0.000  0.001  0.000   -0.000  0.000  0.000
 O         -0.000  0.000  0.000    0.000 -0.000  0.000   -0.000  0.000  0.000
 Li         0.000 -0.000  0.000    0.000 -0.000  0.000    0.000 -0.000  0.000
 H         -0.397 -0.270  0.626    0.044  0.026 -0.072   -0.295 -0.201  0.459
 H         -0.231 -0.041 -0.542   -0.049 -0.004 -0.121    0.310  0.056  0.725
 H          0.024  0.024  0.095    0.183  0.186  0.681    0.033  0.027  0.102
 H          0.044  0.062 -0.091   -0.260 -0.346  0.495   -0.050 -0.058  0.084
 O          0.000 -0.000 -0.001    0.000 -0.000 -0.000    0.000 -0.000  0.000
 C         -0.000 -0.001  0.002   -0.000  0.000 -0.000   -0.000 -0.000  0.000
 O          0.000  0.000 -0.000    0.000 -0.000  0.000    0.000  0.000 -0.000
 O         -0.000  0.000 -0.000    0.000 -0.000 -0.000   -0.000  0.000 -0.000
 Li         0.000 -0.000 -0.000   -0.000  0.000  0.000    0.000 -0.000 -0.000
 Li        -0.000  0.000  0.000   -0.000  0.000 -0.000    0.000 -0.000  0.000
 TransDip  -0.094  0.010  0.063    0.029 -0.017  0.066   -0.073  0.021  0.160

 STANDARD THERMODYNAMIC QUANTITIES AT   298.15 K  AND     1.00 ATM

   This Molecule has  1 Imaginary Frequencies
   Zero point vibrational energy:       59.394 kcal/mol

   Atom    1 Element C  Has Mass   12.00000
   Atom    2 Element C  Has Mass   12.00000
   Atom    3 Element O  Has Mass   15.99491
   Atom    4 Element C  Has Mass   12.00000
   Atom    5 Element O  Has Mass   15.99491
   Atom    6 Element O  Has Mass   15.99491
   Atom    7 Element Li Has Mass    7.01600
   Atom    8 Element H  Has Mass    1.00783
   Atom    9 Element H  Has Mass    1.00783
   Atom   10 Element H  Has Mass    1.00783
   Atom   11 Element H  Has Mass    1.00783
   Atom   12 Element O  Has Mass   15.99491
   Atom   13 Element C  Has Mass   12.00000
   Atom   14 Element O  Has Mass   15.99491
   Atom   15 Element O  Has Mass   15.99491
   Atom   16 Element Li Has Mass    7.01600
   Atom   17 Element Li Has Mass    7.01600
   Molecular Mass:   169.048780 amu
   Principal axes and moments of inertia in amu*Bohr^2:
                             1           2           3
    Eigenvalues --      876.46709  4237.58832  4748.22937
          X               0.72758    -0.20095     0.65594
          Y              -0.68322    -0.29868     0.66634
          Z              -0.06201     0.93296     0.35460
   Rotational Symmetry Number is   1
   The Molecule is an Asymmetric Top
   Translational Enthalpy:        0.889 kcal/mol
   Rotational Enthalpy:           0.889 kcal/mol
   Vibrational Enthalpy:         66.253 kcal/mol
   gas constant (RT):             0.592 kcal/mol
   Translational Entropy:        41.283  cal/mol.K
   Rotational Entropy:           31.245  cal/mol.K
   Vibrational Entropy:          49.748  cal/mol.K

   Total Enthalpy:               68.623 kcal/mol
   Total Entropy:               122.276  cal/mol.K
Archival summary:
1\1\n0265.lr6\FREQ\ProcedureUnspecified\BasisUnspecified\64i34(1+,1)\ewcspott\ThuJul1616:25:562020ThuJul1616:25:562020\0\\#,FREQ,ProcedureUnspecified,BasisUnspecified,\\1,1\O\C,1,1.47151\O,2,1.22814,1,112.796\O,2,1.22992,1,116.842,3,178.697,0\C,1,1.48944,2,118.638,3,165.289,0\H,5,1.08271,1,112.694,2,9.55444,0\H,5,1.08341,1,109.526,2,141.999,0\C,5,1.44674,1,65.7883,2,-103.264,0\H,8,1.08007,5,120.686,1,-92.0878,0\H,8,1.08293,5,119.071,1,96.6005,0\Li,3,1.98077,2,81.2076,1,178.627,0\O,10,2.29949,8,127.166,5,71.9701,0\C,12,1.27225,10,94.1424,8,29.906,0\O,13,1.2808,12,124.75,10,-4.85256,0\O,13,1.32148,12,117.999,10,174.977,0\Li,15,1.86742,13,84.6871,12,-179.414,0\Li,15,1.8709,13,84.0903,12,-0.142663,0\\\@

 Total job time:  26368.01s(wall), 646487.31s(cpu) 
 Thu Jul 16 16:25:56 2020

        *************************************************************
        *                                                           *
        *  Thank you very much for using Q-Chem.  Have a nice day.  *
        *                                                           *
        *************************************************************


