
Running Job 1 of 1 mol.qin
qchem mol.qin_15568.0 /tmp/qchem15568/ 0
/global/common/cori/software/qchem/5.2/exe/qcprog.exe_s mol.qin_15568.0 /tmp/qchem15568/
                  Welcome to Q-Chem
     A Quantum Leap Into The Future Of Chemistry


 Q-Chem 5.2, Q-Chem, Inc., Pleasanton, CA (2019)

 License issued to: National Energy Research Scientific Computing Center

 Yihan Shao,  Zhengting Gan,  E. Epifanovsky,  A. T. B. Gilbert,  M. Wormit,  
 J. Kussmann,  A. W. Lange,  A. Behn,  Jia Deng,  Xintian Feng,  D. Ghosh,  
 M. Goldey,  P. R. Horn,  L. D. Jacobson,  I. Kaliman,  T. Kus,  A. Landau,  
 Jie Liu,  E. I. Proynov,  R. M. Richard,  R. P. Steele,  E. J. Sundstrom,  
 H. L. Woodcock III,  P. M. Zimmerman,  D. Zuev,  B. Albrecht,  E. Alguire,  
 S. A. Baeppler,  D. Barton,  Z. Benda,  Y. A. Bernard,  E. J. Berquist,  
 K. B. Bravaya,  H. Burton,  D. Casanova,  Chun-Min Chang,  Yunqing Chen,  
 A. Chien,  K. D. Closser,  M. P. Coons,  S. Coriani,  S. Dasgupta,  
 A. L. Dempwolff,  M. Diedenhofen,  Hainam Do,  R. G. Edgar,  Po-Tung Fang,  
 S. Faraji,  S. Fatehi,  Qingguo Feng,  K. D. Fenk,  J. Fosso-Tande,  
 J. Gayvert,  Qinghui Ge,  A. Ghysels,  G. Gidofalvi,  J. Gomes,  
 J. Gonthier,  A. Gunina,  D. Hait,  M. W. D. Hanson-Heine,  
 P. H. P. Harbach,  A. W. Hauser,  M. F. Herbst,  J. E. Herr,  
 E. G. Hohenstein,  Z. C. Holden,  Kerwin Hui,  B. C. Huynh,  T.-C. Jagau,  
 Hyunjun Ji,  B. Kaduk,  K. Khistyaev,  Jaehoon Kim,  P. Klunzinger,  K. Koh,  
 D. Kosenkov,  L. Koulias,  T. Kowalczyk,  C. M. Krauter,  A. Kunitsa,  
 Ka Un Lao,  A. Laurent,  K. V. Lawler,  Joonho Lee,  D. Lefrancois,  
 S. Lehtola,  D. S. Levine,  Yi-Pei Li,  You-Sheng Lin,  Fenglai Liu,  
 E. Livshits,  A. Luenser,  P. Manohar,  E. Mansoor,  S. F. Manzer,  
 Shan-Ping Mao,  Yuezhi Mao,  N. Mardirossian,  A. V. Marenich,  
 T. Markovich,  L. A. Martinez-Martinez,  S. A. Maurer,  N. J. Mayhall,  
 S. C. McKenzie,  J.-M. Mewes,  P. Morgante,  A. F. Morrison,  
 J. W. Mullinax,  K. Nanda,  T. S. Nguyen-Beck,  R. Olivares-Amaya,  
 J. A. Parkhill,  Zheng Pei,  T. M. Perrine,  F. Plasser,  P. Pokhilko,  
 S. Prager,  A. Prociuk,  E. Ramos,  D. R. Rehn,  F. Rob,  M. Scheurer,  
 M. Schneider,  N. Sergueev,  S. M. Sharada,  S. Sharma,  D. W. Small,  
 T. Stauch,  T. Stein,  Yu-Chuan Su,  A. J. W. Thom,  A. Tkatchenko,  
 T. Tsuchimochi,  N. M. Tubman,  L. Vogt,  M. L. Vidal,  O. Vydrov,  
 M. A. Watson,  J. Wenzel,  M. de Wergifosse,  T. A. Wesolowski,  A. White,  
 J. Witte,  A. Yamada,  Jun Yang,  K. Yao,  S. Yeganeh,  S. R. Yost,  
 Zhi-Qiang You,  A. Zech,  Igor Ying Zhang,  Xing Zhang,  Yan Zhao,  
 Ying Zhu,  B. R. Brooks,  G. K. L. Chan,  C. J. Cramer,  M. S. Gordon,  
 W. J. Hehre,  A. Klamt,  M. W. Schmidt,  C. D. Sherrill,  D. G. Truhlar,  
 A. Aspuru-Guzik,  R. Baer,  A. T. Bell,  N. A. Besley,  Jeng-Da Chai,  
 A. E. DePrince, III,  R. A. DiStasio Jr.,  A. Dreuw,  B. D. Dunietz,  
 T. R. Furlani,  Chao-Ping Hsu,  Yousung Jung,  Jing Kong,  D. S. Lambrecht,  
 WanZhen Liang,  C. Ochsenfeld,  V. A. Rassolov,  L. V. Slipchenko,  
 J. E. Subotnik,  T. Van Voorhis,  J. M. Herbert,  A. I. Krylov,  
 P. M. W. Gill,  M. Head-Gordon

 Contributors to earlier versions of Q-Chem not listed above: 
 R. D. Adamson,  B. Austin,  J. Baker,  G. J. O. Beran,  K. Brandhorst,  
 S. T. Brown,  E. F. C. Byrd,  A. K. Chakraborty,  C.-L. Cheng,  
 Siu Hung Chien,  D. M. Chipman,  D. L. Crittenden,  H. Dachsel,  
 R. J. Doerksen,  A. D. Dutoi,  L. Fusti-Molnar,  W. A. Goddard III,  
 A. Golubeva-Zadorozhnaya,  S. R. Gwaltney,  G. Hawkins,  A. Heyden,  
 S. Hirata,  G. Kedziora,  F. J. Keil,  C. Kelley,  Jihan Kim,  R. A. King,  
 R. Z. Khaliullin,  P. P. Korambath,  W. Kurlancheek,  A. M. Lee,  M. S. Lee,  
 S. V. Levchenko,  Ching Yeh Lin,  D. Liotard,  R. C. Lochan,  I. Lotan,  
 P. E. Maslen,  N. Nair,  D. P. O'Neill,  D. Neuhauser,  E. Neuscamman,  
 C. M. Oana,  R. Olson,  B. Peters,  R. Peverati,  P. A. Pieniazek,  
 Y. M. Rhee,  J. Ritchie,  M. A. Rohrdanz,  E. Rosta,  N. J. Russ,  
 H. F. Schaefer III,  N. E. Schultz,  N. Shenvi,  A. C. Simmonett,  A. Sodt,  
 D. Stuck,  K. S. Thanthiriwatte,  V. Vanovschi,  Tao Wang,  A. Warshel,  
 C. F. Williams,  Q. Wu,  X. Xu,  W. Zhang

 Please cite Q-Chem as follows:
 Y. Shao et al., Mol. Phys. 113, 184-215 (2015)
 DOI: 10.1080/00268976.2014.952696

 Q-Chem 5.2.0 for Intel X86 EM64T Linux

 Parts of Q-Chem use Armadillo 8.300.2 (Tropical Shenanigans).
 http://arma.sourceforge.net/

 Q-Chem begins on Wed Oct 16 05:18:37 2019  

Host: cori04
0

     Scratch files written to /tmp/qchem15568//
 May1019 |scratch|qcdevops|jenkins|workspace|build_RNUM -1
Processing $rem in /global/common/cori/software/qchem/5.2/config/preferences:
	 MEM_TOTAL  96000 
NAlpha2: 50
NElect   49
Mult     2
Symmetry turned off for PCM/SM12/SMD calculation

Checking the input file for inconsistencies... 	...done.

--------------------------------------------------------------
User input:
--------------------------------------------------------------
$molecule
0 2
O      0.3173894239     -1.2763450240      0.0584897232
C     -0.7361060776     -0.4468645479      0.2398657310
C      1.5710374502     -0.4775429278     -0.0532307055
O     -1.7767065369     -0.5268982419     -0.5043610280
O     -0.3426820240      0.7445880710      0.6988883983
C      1.1841065368      0.9572628359     -0.1139118564
Li     -2.0400850624      1.2713275544     -0.1684825301
H      2.0606959524     -0.8304834310     -0.9610332679
H      2.1818513236     -0.7094514035      0.8208425151
H      0.9584069033      1.3563881637     -1.0998760543
H      1.7034271107      1.6473989511      0.5402600743
$end

$rem
job_type = freq
basis = def2-tzvppd
max_scf_cycles = 500
gen_scfman = true
xc_grid = 3
scf_algorithm = diis
resp_charges = true
symmetry = false
sym_ignore = true
method = wb97xv
geom_opt_max_cycles = 200
solvent_method = smd
ideriv = 1
thresh = 14
$end

$smx
solvent other
$end
--------------------------------------------------------------
 ----------------------------------------------------------------
             Standard Nuclear Orientation (Angstroms)
    I     Atom           X                Y                Z
 ----------------------------------------------------------------
    1      O       0.3173894239    -1.2763450240     0.0584897232
    2      C      -0.7361060776    -0.4468645479     0.2398657310
    3      C       1.5710374502    -0.4775429278    -0.0532307055
    4      O      -1.7767065369    -0.5268982419    -0.5043610280
    5      O      -0.3426820240     0.7445880710     0.6988883983
    6      C       1.1841065368     0.9572628359    -0.1139118564
    7      Li     -2.0400850624     1.2713275544    -0.1684825301
    8      H       2.0606959524    -0.8304834310    -0.9610332679
    9      H       2.1818513236    -0.7094514035     0.8208425151
   10      H       0.9584069033     1.3563881637    -1.0998760543
   11      H       1.7034271107     1.6473989511     0.5402600743
 ----------------------------------------------------------------
 Nuclear Repulsion Energy =         268.32443393 hartrees
 There are       25 alpha and       24 beta electrons
 Requested basis set is def2-TZVPPD
 There are 119 shells and 321 basis functions

 Total QAlloc Memory Limit  96000 MB
 Mega-Array Size       188 MB
 MEM_STATIC part       192 MB
 
 Citation of the SMD model:
 Marenich, A.V.; Cramer, C.J.; Truhlar, D.G.
 J. Phys. Chem. B 2009, 113, 6378-6396.
 iSolventCode=           0
 Solvent: other                                                           
 
 vradii
            1           2           3           4           5           6
    1   2.2940000   1.8500000   1.8500000   2.2940000   2.2940000   1.8500000
            7           8           9          10          11
    1   2.1476001   1.2000000   1.2000000   1.2000000   1.2000000
 Changing PCM_VDW_RADII to SMD_RADIUS
 Discretize the solute cavity surface with Lebedev spheres
	Using 110 Lebedev grid points for each H atom
	Using 194 Lebedev grid points for other atoms
	Atomic van der Waals radii will be scaled by 1.20
 Remove points where switching function is < 1.0e-08
 Keep 783 surface tesserae and discard 1015 interior tesserae
 Molecular Surface Area = 148.119 Angst**2

                       Distance Matrix (Angstroms)
             O (  1)   C (  2)   C (  3)   O (  4)   O (  5)   C (  6)
   C (  2)  1.353066
   C (  3)  1.490704  2.325889
   O (  4)  2.294278  1.281846  3.378364
   O (  5)  2.220355  1.336055  2.391989  2.262943
   C (  6)  2.402067  2.404984  1.487301  3.334906  1.742687
   Li(  7)  3.478482  2.195289  4.013980  1.848188  1.977616  3.239911
   H (  8)  2.068172  3.067804  1.090155  3.876386  3.318496  2.163807
   H (  9)  2.092551  2.986798  1.091274  4.178477  2.915883  2.155736
   H ( 10)  2.946863  2.813895  2.198655  3.373759  2.302756  1.087367
   H ( 11)  3.271312  3.229164  2.210234  4.234399  2.242051  1.083477
             Li(  7)   H (  8)   H (  9)   H ( 10)
   H (  8)  4.675698
   H (  9)  4.767284  1.790086
   H ( 10)  3.140969  2.452902  3.074682
   H ( 11)  3.828528  2.919148  2.421231  1.824771
 
 A cutoff of  1.0D-14 yielded   6914 shell pairs
 There are     51114 function pairs (     65160 Cartesian)
 Smallest overlap matrix eigenvalue = 7.87E-06
 Guess from superposition of atomic densities
 Warning:  Energy on first SCF cycle will be non-variational
 SAD guess density has 48.090450 electrons

 -----------------------------------------------------------------------
  General SCF calculation program by
  Eric Jon Sundstrom, Paul Horn, Yuezhi Mao, Dmitri Zuev, Alec White,
  David Stuck, Shaama M.S., Shane Yost, Joonho Lee, David Small,
  Daniel Levine, Susi Lehtola, Hugh Burton, Evgeny Epifanovsky
 -----------------------------------------------------------------------
 Exchange:     0.1670 Hartree-Fock + 1.0000 wB97X-V + LR-HF
 Correlation:  1.0000 wB97X-V
 Using SG-3 standard quadrature grid
 Nonlocal Correlation:  VV10 with C = 0.0100 and b = 6.00 and scale = 1.00000
 Grid used for NLC:  SG-1 standard quadrature
 
 Citation of the SMD model:
 Marenich, A.V.; Cramer, C.J.; Truhlar, D.G.
 J. Phys. Chem. B 2009, 113, 6378-6396.
 iSolventCode=           0
 Solvent: other                                                           
 
 vradii
            1           2           3           4           5           6
    1   2.2940000   1.8500000   1.8500000   2.2940000   2.2940000   1.8500000
            7           8           9          10          11
    1   2.1476001   1.2000000   1.2000000   1.2000000   1.2000000
 using 32 threads for integral computing
 -------------------------------------------------------
 OpenMP Integral computing Module                
 Release: version 1.0, May 2013, Q-Chem Inc. Pittsburgh 
 -------------------------------------------------------
 using 32 threads for integral computing
 -------------------------------------------------------
 OpenMP Integral computing Module                
 Release: version 1.0, May 2013, Q-Chem Inc. Pittsburgh 
 -------------------------------------------------------
 -------------------------------------------------------
 OpenMP BLAS3 based DFT computing Module                
 Release: version 1.0, May 2013, Q-Chem Inc. Pittsburgh 
 -------------------------------------------------------
 -------------------------------------------------------
 OpenMP BLAS3 based DFT computing Module                
 Release: version 1.0, May 2013, Q-Chem Inc. Pittsburgh 
 -------------------------------------------------------
 -------------------------------------------------------
 OpenMP BLAS3 based DFT computing Module                
 Release: version 1.0, May 2013, Q-Chem Inc. Pittsburgh 
 -------------------------------------------------------
 A unrestricted SCF calculation will be
 performed using DIIS
 SCF converges when DIIS error is below 1.0e-08
 ---------------------------------------
  Cycle       Energy         DIIS error
 ---------------------------------------
    1    -349.1446454043      1.29e-02  
    2    -348.9943283834      5.14e-03  
    3    -349.3382780637      4.08e-03  
    4    -349.9224052247      3.26e-04  
    5    -349.9267710667      2.09e-04  
    6    -349.9286632865      5.47e-05  
    7    -349.9290140367      2.90e-05  
    8    -349.9292634394      2.04e-05  
    9    -349.9294307875      1.14e-05  
   10    -349.9295276737      8.11e-06  
   11    -349.9295579408      3.62e-06  
   12    -349.9295674324      1.59e-06  
   13    -349.9295688322      5.46e-07  
   14    -349.9295689369      2.57e-07  
   15    -349.9295689463      1.21e-07  
   16    -349.9295689482      6.05e-08  
   17    -349.9295689487      1.81e-08  
   18    -349.9295689488      6.00e-09  Convergence criterion met
 ---------------------------------------
 SCF time:   CPU 2182.33s  wall 80.00s 
<S^2> =          0.763116707
(3)  G-ENP(liq) elect-nuc-pol free energy of system     -349.929568949 a.u.
(4)  G-CDS(liq) cavity-dispersion-solvent structure 
     free energy                                               -1.8026 kcal/mol
(6)  G-S(liq) free energy of system                     -349.932441551 a.u.
 SCF   energy in the final basis set =     -349.9295689488
 Total energy in the final basis set =     -349.9324415510
 
 --------------------------------------------------------------
 
                    Orbital Energies (a.u.)
 --------------------------------------------------------------
 
 Alpha MOs
 -- Occupied --
-19.2256 -19.2244 -19.1643 -10.3838 -10.3119 -10.3001  -2.0978  -1.2313
 -1.1197  -1.0923  -0.8882  -0.7533  -0.6724  -0.6159  -0.6002  -0.5758
 -0.5440  -0.5053  -0.4946  -0.4667  -0.4410  -0.4133  -0.3905  -0.3724
 -0.1951
 -- Virtual --
  0.0305   0.0453   0.0479   0.0550   0.0864   0.0942   0.1054   0.1105
  0.1145   0.1312   0.1357   0.1401   0.1463   0.1563   0.1605   0.1708
  0.1756   0.1795   0.1928   0.2022   0.2089   0.2224   0.2338   0.2433
  0.2608   0.2772   0.2774   0.2908   0.2922   0.3081   0.3172   0.3239
  0.3302   0.3400   0.3476   0.3577   0.3618   0.3721   0.3803   0.3839
  0.3901   0.3969   0.3983   0.4114   0.4190   0.4205   0.4256   0.4347
  0.4446   0.4513   0.4621   0.4667   0.4769   0.4836   0.4905   0.4979
  0.5010   0.5103   0.5185   0.5360   0.5487   0.5518   0.5610   0.5639
  0.5735   0.5820   0.5962   0.6112   0.6239   0.6311   0.6397   0.6626
  0.6631   0.6818   0.6917   0.7088   0.7139   0.7292   0.7408   0.7545
  0.7618   0.7740   0.7852   0.7871   0.7964   0.8059   0.8137   0.8245
  0.8483   0.8554   0.8651   0.8742   0.8888   0.9123   0.9317   0.9334
  0.9480   0.9702   0.9812   1.0000   1.0461   1.0541   1.0609   1.0802
  1.1027   1.1182   1.1368   1.1467   1.1575   1.1773   1.2075   1.2179
  1.2653   1.2765   1.2920   1.3085   1.3284   1.3447   1.3592   1.3646
  1.3764   1.4013   1.4253   1.4405   1.4578   1.4852   1.4976   1.5203
  1.5440   1.5544   1.5835   1.6482   1.6881   1.6985   1.7327   1.7504
  1.7602   1.7892   1.8638   1.8746   1.8973   1.9285   1.9374   1.9639
  1.9877   2.0265   2.0552   2.0989   2.1141   2.1712   2.2346   2.2452
  2.2872   2.3140   2.3299   2.3662   2.3994   2.4313   2.4470   2.4957
  2.5062   2.5635   2.6473   2.6884   2.7180   2.7672   2.8033   2.8440
  2.8948   2.9022   2.9371   2.9629   2.9963   3.0304   3.0489   3.0807
  3.1193   3.1472   3.1606   3.1937   3.1970   3.2230   3.2503   3.2976
  3.3045   3.3522   3.3603   3.3853   3.3895   3.4178   3.4270   3.4666
  3.4814   3.4907   3.5243   3.5339   3.5604   3.5830   3.6081   3.6207
  3.6504   3.6673   3.7167   3.7524   3.7720   3.7913   3.7990   3.8397
  3.8654   3.9184   3.9500   3.9589   3.9846   4.0206   4.0631   4.0858
  4.1183   4.1486   4.2489   4.2874   4.3100   4.3678   4.3711   4.4001
  4.4213   4.4308   4.5438   4.5928   4.6783   4.7210   4.7599   4.7734
  4.8338   4.8916   4.9434   4.9532   5.0377   5.0447   5.0667   5.0927
  5.1813   5.3013   5.3156   5.3360   5.3589   5.3727   5.4315   5.4497
  5.5191   5.5371   5.5539   5.6147   5.6378   5.6596   5.6776   5.6997
  5.7447   5.7684   5.8258   5.8661   5.8751   5.9589   5.9829   6.1013
  6.1092   6.1546   6.2508   6.2558   6.3056   6.3277   6.4363   6.4622
  6.5098   6.6625   6.7566   6.7767   6.8677   6.9603   6.9907   7.0196
  7.0678   7.1423   7.1846   7.3030   7.3373   7.3944   7.4623   7.5222
  7.6060  14.8939  23.3314  23.5544  23.6320  44.2860  44.3661  44.4690
 
 Beta MOs
 -- Occupied --
-19.2245 -19.2236 -19.1607 -10.3782 -10.3114 -10.2950  -2.0975  -1.2247
 -1.1158  -1.0845  -0.8774  -0.7457  -0.6617  -0.6094  -0.5891  -0.5687
 -0.5345  -0.4953  -0.4887  -0.4594  -0.4376  -0.4085  -0.3785  -0.3658
 -- Virtual --
  0.0306   0.0469   0.0495   0.0517   0.0676   0.0882   0.1091   0.1137
  0.1195   0.1264   0.1371   0.1407   0.1443   0.1537   0.1603   0.1666
  0.1741   0.1781   0.1894   0.1969   0.2053   0.2124   0.2265   0.2374
  0.2459   0.2658   0.2802   0.2811   0.2938   0.2950   0.3106   0.3194
  0.3263   0.3319   0.3427   0.3494   0.3603   0.3649   0.3752   0.3817
  0.3865   0.3932   0.3994   0.4002   0.4125   0.4199   0.4235   0.4275
  0.4353   0.4463   0.4532   0.4638   0.4681   0.4796   0.4856   0.4943
  0.5012   0.5047   0.5126   0.5210   0.5388   0.5524   0.5535   0.5622
  0.5664   0.5750   0.5841   0.5980   0.6126   0.6253   0.6335   0.6412
  0.6630   0.6645   0.6830   0.6932   0.7099   0.7161   0.7328   0.7424
  0.7557   0.7643   0.7762   0.7869   0.7893   0.7982   0.8074   0.8160
  0.8257   0.8498   0.8564   0.8666   0.8768   0.8901   0.9134   0.9336
  0.9343   0.9497   0.9727   0.9826   1.0013   1.0487   1.0562   1.0626
  1.0816   1.1038   1.1214   1.1397   1.1491   1.1599   1.1807   1.2124
  1.2201   1.2692   1.2778   1.2936   1.3127   1.3309   1.3460   1.3611
  1.3667   1.3811   1.4036   1.4279   1.4446   1.4608   1.4905   1.5012
  1.5237   1.5472   1.5575   1.5873   1.6510   1.6902   1.7002   1.7357
  1.7525   1.7623   1.7922   1.8687   1.8896   1.9007   1.9379   1.9415
  1.9704   1.9901   2.0325   2.0606   2.1032   2.1173   2.1740   2.2438
  2.2500   2.2918   2.3178   2.3334   2.3718   2.4037   2.4366   2.4523
  2.5018   2.5103   2.5689   2.6528   2.6923   2.7215   2.7725   2.8070
  2.8487   2.8975   2.9051   2.9410   2.9682   3.0017   3.0328   3.0544
  3.0858   3.1259   3.1522   3.1665   3.1983   3.2070   3.2273   3.2582
  3.3080   3.3113   3.3589   3.3726   3.3947   3.3973   3.4266   3.4370
  3.4789   3.4905   3.4951   3.5346   3.5410   3.5676   3.5877   3.6134
  3.6287   3.6563   3.6727   3.7214   3.7582   3.7781   3.7998   3.8053
  3.8420   3.8711   3.9218   3.9530   3.9632   3.9872   4.0245   4.0662
  4.0891   4.1230   4.1516   4.2516   4.2905   4.3112   4.3682   4.3718
  4.4024   4.4227   4.4326   4.5484   4.5952   4.6810   4.7246   4.7628
  4.7764   4.8367   4.8953   4.9473   4.9557   5.0424   5.0467   5.0694
  5.0977   5.1840   5.3068   5.3197   5.3424   5.3620   5.3757   5.4333
  5.4531   5.5216   5.5394   5.5564   5.6174   5.6416   5.6619   5.6808
  5.7025   5.7473   5.7713   5.8275   5.8700   5.8779   5.9630   5.9850
  6.1016   6.1106   6.1578   6.2563   6.2569   6.3079   6.3307   6.4428
  6.4664   6.5153   6.6746   6.7648   6.7830   6.8685   6.9633   6.9925
  7.0285   7.0704   7.1433   7.1879   7.3061   7.3421   7.3981   7.4635
  7.5227   7.6069  14.8942  23.3351  23.5605  23.6361  44.2895  44.3676
 44.4703
 --------------------------------------------------------------
 
          Ground-State Mulliken Net Atomic Charges

     Atom                 Charge (a.u.)    Spin (a.u.)
  --------------------------------------------------------
      1 O                    -0.193851      -0.085281
      2 C                     0.324376       0.650584
      3 C                    -0.025526       0.058081
      4 O                    -0.769664       0.087870
      5 O                    -0.509678      -0.145808
      6 C                    -0.050772       0.393172
      7 Li                    0.847641       0.029383
      8 H                     0.098241      -0.000655
      9 H                     0.068622       0.004548
     10 H                     0.100775       0.003807
     11 H                     0.109836       0.004299
  --------------------------------------------------------
  Sum of atomic charges =     0.000000
  Sum of spin   charges =     1.000000

  Building new vdw surfaces
         Merz-Kollman RESP Net Atomic Charges

     Atom                 Charge (a.u.)
  ----------------------------------------
      1 O                    -0.287754
      2 C                     0.242603
      3 C                     0.090564
      4 O                    -0.674724
      5 O                    -0.427473
      6 C                    -0.270210
      7 Li                    0.828574
      8 H                     0.084043
      9 H                     0.084043
     10 H                     0.165167
     11 H                     0.165167
  ----------------------------------------
  Sum of atomic charges =     0.000000

  Related Dipole Moment =     6.8239 (X  0.0169 Y  6.7930 Z -0.6482)

 -----------------------------------------------------------------
                    Cartesian Multipole Moments
 -----------------------------------------------------------------
    Charge (ESU x 10^10)
                 0.0000
    Dipole Moment (Debye)
         X      -0.1099      Y       6.9132      Z      -0.7015
       Tot       6.9496
    Quadrupole Moments (Debye-Ang)
        XX     -28.0040     XY     -12.4757     YY     -34.7515
        XZ      -0.5917     YZ      -2.9539     ZZ     -39.3642
    Octopole Moments (Debye-Ang^2)
       XXX     -15.7068    XXY      30.5788    XYY     -12.5529
       YYY      27.5903    XXZ       2.7063    XYZ       5.4288
       YYZ      -2.8553    XZZ       3.5806    YZZ       4.4001
       ZZZ      -4.8030
    Hexadecapole Moments (Debye-Ang^3)
      XXXX    -342.9242   XXXY     -79.6953   XXYY     -65.5887
      XYYY     -30.7032   YYYY    -197.7850   XXXZ      -5.7672
      XXYZ      -6.7272   XYYZ       1.6920   YYYZ     -10.2735
      XXZZ     -78.1525   XYZZ      -6.7365   YYZZ     -47.6726
      XZZZ      -7.1147   YZZZ     -10.0849   ZZZZ     -88.3575
 -----------------------------------------------------------------
 Calculating analytic gradient of the SCF energy
 Gradient of CDS energy
            1           2           3           4           5           6
    1   0.0011664  -0.0010461   0.0007314  -0.0003185   0.0001975   0.0003589
    2   0.0000154  -0.0010367  -0.0011824   0.0006393   0.0005773   0.0013094
    3  -0.0005101   0.0013465   0.0000396  -0.0003121  -0.0007282  -0.0000499
            7           8           9          10          11
    1  -0.0000781  -0.0002979  -0.0002523  -0.0002225  -0.0002389
    2  -0.0000424   0.0000280   0.0000945  -0.0001710  -0.0002314
    3  -0.0001032   0.0000792  -0.0000557   0.0002182   0.0000755
 Gradient of SCF Energy
            1           2           3           4           5           6
    1  -0.0023426  -0.0002425  -0.0010577   0.0018364   0.0011327  -0.0039017
    2  -0.0020116   0.0034547   0.0021266  -0.0074873  -0.0040189  -0.0083878
    3   0.0003307  -0.0023426   0.0007918   0.0021600   0.0006786   0.0046949
            7           8           9          10          11
    1  -0.0018577   0.0013358   0.0016919  -0.0003968   0.0038022
    2   0.0086370  -0.0003407  -0.0001090   0.0038108   0.0043263
    3  -0.0014738  -0.0024702   0.0019405  -0.0077233   0.0034134
 Max gradient component =       8.637E-03
 RMS gradient           =       3.639E-03
 Computing fast CPCM-SWIG gradient
 Updating gradient with PCM contributions...
 -- total gradient after adding PCM contribution --
---------------------------------------------------
  Atom         X              Y              Z     
---------------------------------------------------
   1      -0.000023      -0.000030      -0.000026
   2       0.000034      -0.000013       0.000070
   3       0.000021       0.000006      -0.000013
   4      -0.000010       0.000060      -0.000014
   5       0.000079       0.000017       0.000016
   6      -0.000036      -0.000009       0.000021
   7      -0.000067      -0.000021      -0.000044
   8      -0.000002      -0.000002      -0.000001
   9      -0.000004      -0.000003      -0.000002
  10      -0.000000      -0.000004      -0.000000
  11       0.000008      -0.000002      -0.000006
---------------------------------------------------
 Number of fixed atoms: 0
 Gradient time:  CPU 364.36 s  wall 16.23 s
 ######################################################
 ######################################################
 # Starting finite difference calculation for IDERIV  #
 Finite diff step size:  1.88973e-03 a.u.
 ----------------------------------------------------------------
             Standard Nuclear Orientation (Angstroms)
    I     Atom           X                Y                Z
 ----------------------------------------------------------------
    1      O       0.3183894239    -1.2763450240     0.0584897232
    2      C      -0.7361060776    -0.4468645479     0.2398657310
    3      C       1.5710374502    -0.4775429278    -0.0532307055
    4      O      -1.7767065369    -0.5268982419    -0.5043610280
    5      O      -0.3426820240     0.7445880710     0.6988883983
    6      C       1.1841065368     0.9572628359    -0.1139118564
    7      Li     -2.0400850624     1.2713275544    -0.1684825301
    8      H       2.0606959524    -0.8304834310    -0.9610332679
    9      H       2.1818513236    -0.7094514035     0.8208425151
   10      H       0.9584069033     1.3563881637    -1.0998760543
   11      H       1.7034271107     1.6473989511     0.5402600743
 ----------------------------------------------------------------
 Nuclear Repulsion Energy =         268.31818514 hartrees
 There are       25 alpha and       24 beta electrons
 Discretize the solute cavity surface with Lebedev spheres
	Using 110 Lebedev grid points for each H atom
	Using 194 Lebedev grid points for other atoms
	Atomic van der Waals radii will be scaled by 1.20
 Remove points where switching function is < 1.0e-08
 Keep 783 surface tesserae and discard 1015 interior tesserae
 Molecular Surface Area = 148.121 Angst**2

                       Distance Matrix (Angstroms)
             O (  1)   C (  2)   C (  3)   O (  4)   O (  5)   C (  6)
   C (  2)  1.353845
   C (  3)  1.489864  2.325889
   O (  4)  2.295190  1.281846  3.378364
   O (  5)  2.220652  1.336055  2.391989  2.262943
   C (  6)  2.401706  2.404984  1.487301  3.334906  1.742687
   Li(  7)  3.479160  2.195289  4.013980  1.848188  1.977616  3.239911
   H (  8)  2.067330  3.067804  1.090155  3.876386  3.318496  2.163807
   H (  9)  2.091660  2.986798  1.091274  4.178477  2.915883  2.155736
   H ( 10)  2.946645  2.813895  2.198655  3.373759  2.302756  1.087367
   H ( 11)  3.270888  3.229164  2.210234  4.234399  2.242051  1.083477
             Li(  7)   H (  8)   H (  9)   H ( 10)
   H (  8)  4.675698
   H (  9)  4.767284  1.790086
   H ( 10)  3.140969  2.452902  3.074682
   H ( 11)  3.828528  2.919148  2.421231  1.824771
 
 Requested basis set is def2-TZVPPD
 There are 119 shells and 321 basis functions
 A cutoff of  1.0D-14 yielded   6914 shell pairs
 There are     51114 function pairs (     65160 Cartesian)
 Smallest overlap matrix eigenvalue = 7.87E-06
 Guess MOs from SCF MO coefficient file

 -----------------------------------------------------------------------
  General SCF calculation program by
  Eric Jon Sundstrom, Paul Horn, Yuezhi Mao, Dmitri Zuev, Alec White,
  David Stuck, Shaama M.S., Shane Yost, Joonho Lee, David Small,
  Daniel Levine, Susi Lehtola, Hugh Burton, Evgeny Epifanovsky
 -----------------------------------------------------------------------
 Exchange:     0.1670 Hartree-Fock + 1.0000 wB97X-V + LR-HF
 Correlation:  1.0000 wB97X-V
 Using SG-3 standard quadrature grid
 Nonlocal Correlation:  VV10 with C = 0.0100 and b = 6.00 and scale = 1.00000
 Grid used for NLC:  SG-1 standard quadrature
 
 Citation of the SMD model:
 Marenich, A.V.; Cramer, C.J.; Truhlar, D.G.
 J. Phys. Chem. B 2009, 113, 6378-6396.
 iSolventCode=           0
 Solvent: other                                                           
 
 vradii
            1           2           3           4           5           6
    1   2.2940000   1.8500000   1.8500000   2.2940000   2.2940000   1.8500000
            7           8           9          10          11
    1   2.1476001   1.2000000   1.2000000   1.2000000   1.2000000
 using 32 threads for integral computing
 -------------------------------------------------------
 OpenMP Integral computing Module                
 Release: version 1.0, May 2013, Q-Chem Inc. Pittsburgh 
 -------------------------------------------------------
 using 32 threads for integral computing
 -------------------------------------------------------
 OpenMP Integral computing Module                
 Release: version 1.0, May 2013, Q-Chem Inc. Pittsburgh 
 -------------------------------------------------------
 -------------------------------------------------------
 OpenMP BLAS3 based DFT computing Module                
 Release: version 1.0, May 2013, Q-Chem Inc. Pittsburgh 
 -------------------------------------------------------
 -------------------------------------------------------
 OpenMP BLAS3 based DFT computing Module                
 Release: version 1.0, May 2013, Q-Chem Inc. Pittsburgh 
 -------------------------------------------------------
 -------------------------------------------------------
 OpenMP BLAS3 based DFT computing Module                
 Release: version 1.0, May 2013, Q-Chem Inc. Pittsburgh 
 -------------------------------------------------------
 A unrestricted SCF calculation will be
 performed using Roothaan-Hall, DIIS
 SCF converges when DIIS error is below 1.0e-08
 ---------------------------------------
  Cycle       Energy         DIIS error
 ---------------------------------------
    1    -349.9294710920      3.53e-06  Roothaan Step
 ---------------------------------------
  Cycle       Energy         DIIS error
 ---------------------------------------
    1    -349.9295705070      8.52e-07  
    2    -349.9295705808      6.93e-07  
    3    -349.9295706076      2.78e-07  
    4    -349.9295706279      1.61e-07  
    5    -349.9295706385      1.19e-07  
    6    -349.9295706476      6.01e-08  
    7    -349.9295706509      3.65e-08  
    8    -349.9295706516      1.68e-08  
    9    -349.9295706517      6.63e-09  Convergence criterion met
 ---------------------------------------
 SCF time:   CPU 1230.86s  wall 46.00s 
<S^2> =          0.763126182
(3)  G-ENP(liq) elect-nuc-pol free energy of system     -349.929570652 a.u.
(4)  G-CDS(liq) cavity-dispersion-solvent structure 
     free energy                                               -1.8012 kcal/mol
(6)  G-S(liq) free energy of system                     -349.932441042 a.u.
 SCF   energy in the final basis set =     -349.9295706517
 Total energy in the final basis set =     -349.9324410421
 
 --------------------------------------------------------------
 
                    Orbital Energies (a.u.)
 --------------------------------------------------------------
 
 Alpha MOs
 -- Occupied --
-19.2255 -19.2244 -19.1644 -10.3838 -10.3119 -10.3002  -2.0978  -1.2311
 -1.1197  -1.0923  -0.8882  -0.7533  -0.6724  -0.6159  -0.6002  -0.5757
 -0.5440  -0.5053  -0.4947  -0.4667  -0.4410  -0.4132  -0.3905  -0.3724
 -0.1951
 -- Virtual --
  0.0305   0.0453   0.0479   0.0550   0.0864   0.0942   0.1054   0.1105
  0.1145   0.1312   0.1357   0.1401   0.1463   0.1563   0.1605   0.1708
  0.1756   0.1795   0.1928   0.2022   0.2089   0.2224   0.2338   0.2433
  0.2608   0.2772   0.2775   0.2908   0.2922   0.3081   0.3172   0.3239
  0.3302   0.3400   0.3476   0.3577   0.3618   0.3721   0.3803   0.3839
  0.3901   0.3969   0.3983   0.4114   0.4190   0.4205   0.4256   0.4347
  0.4446   0.4513   0.4621   0.4666   0.4768   0.4836   0.4905   0.4979
  0.5010   0.5103   0.5185   0.5360   0.5487   0.5518   0.5610   0.5639
  0.5734   0.5820   0.5962   0.6112   0.6239   0.6311   0.6397   0.6626
  0.6631   0.6818   0.6917   0.7088   0.7138   0.7292   0.7409   0.7545
  0.7618   0.7740   0.7852   0.7871   0.7964   0.8059   0.8137   0.8246
  0.8483   0.8554   0.8651   0.8741   0.8888   0.9123   0.9317   0.9334
  0.9480   0.9702   0.9812   1.0000   1.0461   1.0541   1.0610   1.0802
  1.1028   1.1182   1.1367   1.1467   1.1576   1.1773   1.2075   1.2179
  1.2652   1.2765   1.2920   1.3085   1.3284   1.3448   1.3592   1.3646
  1.3764   1.4012   1.4254   1.4406   1.4578   1.4852   1.4976   1.5203
  1.5440   1.5543   1.5835   1.6482   1.6881   1.6985   1.7327   1.7504
  1.7602   1.7892   1.8639   1.8746   1.8973   1.9284   1.9374   1.9639
  1.9876   2.0265   2.0553   2.0990   2.1144   2.1713   2.2345   2.2452
  2.2874   2.3141   2.3298   2.3663   2.3994   2.4311   2.4470   2.4958
  2.5062   2.5637   2.6475   2.6884   2.7180   2.7671   2.8034   2.8440
  2.8949   2.9023   2.9373   2.9630   2.9964   3.0304   3.0489   3.0805
  3.1193   3.1472   3.1606   3.1937   3.1970   3.2229   3.2502   3.2975
  3.3045   3.3522   3.3603   3.3852   3.3895   3.4178   3.4270   3.4665
  3.4814   3.4905   3.5244   3.5339   3.5603   3.5830   3.6081   3.6206
  3.6504   3.6673   3.7167   3.7525   3.7719   3.7914   3.7991   3.8400
  3.8654   3.9185   3.9502   3.9589   3.9846   4.0205   4.0630   4.0856
  4.1182   4.1486   4.2490   4.2875   4.3098   4.3679   4.3711   4.4002
  4.4215   4.4308   4.5439   4.5927   4.6784   4.7210   4.7599   4.7734
  4.8339   4.8917   4.9434   4.9535   5.0378   5.0452   5.0667   5.0926
  5.1813   5.3013   5.3155   5.3360   5.3589   5.3730   5.4315   5.4496
  5.5191   5.5371   5.5539   5.6147   5.6377   5.6595   5.6776   5.6996
  5.7447   5.7685   5.8257   5.8661   5.8752   5.9592   5.9836   6.1013
  6.1092   6.1552   6.2505   6.2558   6.3055   6.3280   6.4359   6.4618
  6.5098   6.6624   6.7566   6.7764   6.8677   6.9603   6.9907   7.0196
  7.0677   7.1422   7.1845   7.3027   7.3373   7.3943   7.4626   7.5225
  7.6058  14.8938  23.3309  23.5534  23.6321  44.2859  44.3660  44.4695
 
 Beta MOs
 -- Occupied --
-19.2244 -19.2237 -19.1607 -10.3781 -10.3113 -10.2951  -2.0975  -1.2246
 -1.1158  -1.0845  -0.8773  -0.7457  -0.6617  -0.6095  -0.5891  -0.5687
 -0.5345  -0.4954  -0.4887  -0.4594  -0.4376  -0.4084  -0.3785  -0.3658
 -- Virtual --
  0.0306   0.0469   0.0495   0.0517   0.0676   0.0882   0.1091   0.1137
  0.1195   0.1264   0.1371   0.1407   0.1443   0.1537   0.1603   0.1666
  0.1741   0.1781   0.1894   0.1969   0.2053   0.2124   0.2265   0.2374
  0.2459   0.2659   0.2802   0.2811   0.2938   0.2950   0.3106   0.3194
  0.3263   0.3318   0.3427   0.3494   0.3602   0.3649   0.3753   0.3817
  0.3865   0.3932   0.3994   0.4002   0.4125   0.4199   0.4235   0.4275
  0.4353   0.4463   0.4532   0.4638   0.4681   0.4795   0.4856   0.4942
  0.5011   0.5047   0.5125   0.5209   0.5388   0.5524   0.5535   0.5622
  0.5664   0.5750   0.5841   0.5980   0.6126   0.6253   0.6335   0.6412
  0.6630   0.6645   0.6830   0.6932   0.7099   0.7161   0.7328   0.7425
  0.7557   0.7643   0.7762   0.7869   0.7893   0.7982   0.8074   0.8160
  0.8257   0.8498   0.8564   0.8666   0.8767   0.8902   0.9134   0.9336
  0.9343   0.9497   0.9727   0.9826   1.0013   1.0487   1.0562   1.0627
  1.0815   1.1039   1.1214   1.1396   1.1491   1.1600   1.1807   1.2125
  1.2201   1.2691   1.2778   1.2936   1.3127   1.3309   1.3460   1.3611
  1.3666   1.3811   1.4036   1.4279   1.4446   1.4607   1.4905   1.5012
  1.5237   1.5473   1.5574   1.5873   1.6510   1.6902   1.7002   1.7357
  1.7525   1.7623   1.7921   1.8687   1.8897   1.9006   1.9379   1.9414
  1.9703   1.9900   2.0325   2.0607   2.1033   2.1176   2.1740   2.2437
  2.2500   2.2920   2.3179   2.3333   2.3718   2.4037   2.4364   2.4523
  2.5019   2.5103   2.5690   2.6530   2.6923   2.7215   2.7724   2.8071
  2.8488   2.8976   2.9053   2.9412   2.9683   3.0017   3.0327   3.0544
  3.0857   3.1259   3.1522   3.1666   3.1983   3.2070   3.2272   3.2581
  3.3079   3.3113   3.3588   3.3725   3.3947   3.3973   3.4266   3.4370
  3.4789   3.4906   3.4950   3.5347   3.5410   3.5674   3.5878   3.6134
  3.6286   3.6562   3.6726   3.7214   3.7582   3.7780   3.7999   3.8053
  3.8423   3.8711   3.9219   3.9531   3.9632   3.9872   4.0245   4.0661
  4.0890   4.1228   4.1516   4.2516   4.2905   4.3111   4.3683   4.3718
  4.4025   4.4229   4.4326   4.5484   4.5952   4.6811   4.7246   4.7627
  4.7764   4.8368   4.8954   4.9473   4.9559   5.0425   5.0472   5.0694
  5.0976   5.1839   5.3068   5.3196   5.3423   5.3620   5.3760   5.4333
  5.4530   5.5216   5.5395   5.5564   5.6174   5.6415   5.6619   5.6807
  5.7025   5.7472   5.7713   5.8274   5.8700   5.8780   5.9633   5.9856
  6.1016   6.1106   6.1584   6.2563   6.2566   6.3078   6.3311   6.4424
  6.4660   6.5153   6.6745   6.7648   6.7826   6.8685   6.9633   6.9926
  7.0285   7.0703   7.1432   7.1878   7.3058   7.3421   7.3980   7.4637
  7.5231   7.6068  14.8941  23.3346  23.5595  23.6361  44.2894  44.3675
 44.4708
 --------------------------------------------------------------
 
          Ground-State Mulliken Net Atomic Charges

     Atom                 Charge (a.u.)    Spin (a.u.)
  --------------------------------------------------------
      1 O                    -0.193797      -0.085356
      2 C                     0.323598       0.651698
      3 C                    -0.025516       0.057852
      4 O                    -0.769517       0.087996
      5 O                    -0.509520      -0.146050
      6 C                    -0.050111       0.392503
      7 Li                    0.847647       0.029364
      8 H                     0.098150      -0.000658
      9 H                     0.068586       0.004543
     10 H                     0.100716       0.003816
     11 H                     0.109764       0.004291
  --------------------------------------------------------
  Sum of atomic charges =     0.000000
  Sum of spin   charges =     1.000000

  Building new vdw surfaces
         Merz-Kollman RESP Net Atomic Charges

     Atom                 Charge (a.u.)
  ----------------------------------------
      1 O                    -0.287816
      2 C                     0.241448
      3 C                     0.091270
      4 O                    -0.674415
      5 O                    -0.427344
      6 C                    -0.269434
      7 Li                    0.828646
      8 H                     0.083753
      9 H                     0.083753
     10 H                     0.165069
     11 H                     0.165069
  ----------------------------------------
  Sum of atomic charges =     0.000000

  Related Dipole Moment =     6.8297 (X  0.0186 Y  6.7987 Z -0.6500)

 -----------------------------------------------------------------
                    Cartesian Multipole Moments
 -----------------------------------------------------------------
    Charge (ESU x 10^10)
                 0.0000
    Dipole Moment (Debye)
         X      -0.1082      Y       6.9190      Z      -0.7036
       Tot       6.9555
    Quadrupole Moments (Debye-Ang)
        XX     -28.0018     XY     -12.4708     YY     -34.7510
        XZ      -0.5925     YZ      -2.9515     ZZ     -39.3659
    Octopole Moments (Debye-Ang^2)
       XXX     -15.7163    XXY      30.5950    XYY     -12.5545
       YYY      27.6051    XXZ       2.7006    XYZ       5.4244
       YYZ      -2.8585    XZZ       3.5798    YZZ       4.4076
       ZZZ      -4.8070
    Hexadecapole Moments (Debye-Ang^3)
      XXXX    -342.9126   XXXY     -79.6489   XXYY     -65.5827
      XYYY     -30.6699   YYYY    -197.7841   XXXZ      -5.7797
      XXYZ      -6.7256   XYYZ       1.6908   YYYZ     -10.2671
      XXZZ     -78.1600   XYZZ      -6.7286   YYZZ     -47.6728
      XZZZ      -7.1180   YZZZ     -10.0784   ZZZZ     -88.3632
 -----------------------------------------------------------------
 Calculating analytic gradient of the SCF energy
 Gradient of CDS energy
            1           2           3           4           5           6
    1   0.0011745  -0.0010534   0.0007317  -0.0003191   0.0001975   0.0003590
    2   0.0000095  -0.0010321  -0.0011811   0.0006402   0.0005773   0.0013093
    3  -0.0005104   0.0013466   0.0000394  -0.0003118  -0.0007282  -0.0000499
            7           8           9          10          11
    1  -0.0000781  -0.0002981  -0.0002526  -0.0002225  -0.0002389
    2  -0.0000424   0.0000278   0.0000941  -0.0001710  -0.0002314
    3  -0.0001032   0.0000792  -0.0000555   0.0002182   0.0000755
 Gradient of SCF Energy
            1           2           3           4           5           6
    1  -0.0017600  -0.0004586  -0.0011550   0.0017495   0.0009023  -0.0037274
    2  -0.0021845   0.0037630   0.0021956  -0.0074570  -0.0041123  -0.0084590
    3   0.0003734  -0.0024861   0.0007714   0.0022341   0.0007916   0.0046154
            7           8           9          10          11
    1  -0.0018525   0.0012717   0.0016301  -0.0003921   0.0037919
    2   0.0086422  -0.0003878  -0.0001481   0.0038150   0.0043329
    3  -0.0014728  -0.0024668   0.0019435  -0.0077363   0.0034326
 Max gradient component =       8.642E-03
 RMS gradient           =       3.644E-03
 Computing fast CPCM-SWIG gradient
 Updating gradient with PCM contributions...
 -- total gradient after adding PCM contribution --
---------------------------------------------------
  Atom         X              Y              Z     
---------------------------------------------------
   1       0.000562      -0.000199       0.000022
   2      -0.000174       0.000303      -0.000082
   3      -0.000090       0.000074      -0.000037
   4      -0.000100       0.000093       0.000060
   5      -0.000149      -0.000078       0.000130
   6       0.000148      -0.000070      -0.000063
   7      -0.000064      -0.000020      -0.000042
   8      -0.000064      -0.000049       0.000004
   9      -0.000063      -0.000043       0.000003
  10       0.000003      -0.000006      -0.000001
  11      -0.000008      -0.000005       0.000006
---------------------------------------------------
 Number of fixed atoms: 0
 Gradient time:  CPU 365.31 s  wall 16.27 s
 ----------------------------------------------------------------
             Standard Nuclear Orientation (Angstroms)
    I     Atom           X                Y                Z
 ----------------------------------------------------------------
    1      O       0.3163894239    -1.2763450240     0.0584897232
    2      C      -0.7361060776    -0.4468645479     0.2398657310
    3      C       1.5710374502    -0.4775429278    -0.0532307055
    4      O      -1.7767065369    -0.5268982419    -0.5043610280
    5      O      -0.3426820240     0.7445880710     0.6988883983
    6      C       1.1841065368     0.9572628359    -0.1139118564
    7      Li     -2.0400850624     1.2713275544    -0.1684825301
    8      H       2.0606959524    -0.8304834310    -0.9610332679
    9      H       2.1818513236    -0.7094514035     0.8208425151
   10      H       0.9584069033     1.3563881637    -1.0998760543
   11      H       1.7034271107     1.6473989511     0.5402600743
 ----------------------------------------------------------------
 Nuclear Repulsion Energy =         268.33070163 hartrees
 There are       25 alpha and       24 beta electrons
 Discretize the solute cavity surface with Lebedev spheres
	Using 110 Lebedev grid points for each H atom
	Using 194 Lebedev grid points for other atoms
	Atomic van der Waals radii will be scaled by 1.20
 Remove points where switching function is < 1.0e-08
 Keep 783 surface tesserae and discard 1015 interior tesserae
 Molecular Surface Area = 148.116 Angst**2

                       Distance Matrix (Angstroms)
             O (  1)   C (  2)   C (  3)   O (  4)   O (  5)   C (  6)
   C (  2)  1.352288
   C (  3)  1.491545  2.325889
   O (  4)  2.293365  1.281846  3.378364
   O (  5)  2.220058  1.336055  2.391989  2.262943
   C (  6)  2.402428  2.404984  1.487301  3.334906  1.742687
   Li(  7)  3.477804  2.195289  4.013980  1.848188  1.977616  3.239911
   H (  8)  2.069015  3.067804  1.090155  3.876386  3.318496  2.163807
   H (  9)  2.093442  2.986798  1.091274  4.178477  2.915883  2.155736
   H ( 10)  2.947080  2.813895  2.198655  3.373759  2.302756  1.087367
   H ( 11)  3.271736  3.229164  2.210234  4.234399  2.242051  1.083477
             Li(  7)   H (  8)   H (  9)   H ( 10)
   H (  8)  4.675698
   H (  9)  4.767284  1.790086
   H ( 10)  3.140969  2.452902  3.074682
   H ( 11)  3.828528  2.919148  2.421231  1.824771
 
 Requested basis set is def2-TZVPPD
 There are 119 shells and 321 basis functions
 A cutoff of  1.0D-14 yielded   6914 shell pairs
 There are     51114 function pairs (     65160 Cartesian)
 Smallest overlap matrix eigenvalue = 7.87E-06
 Guess MOs from SCF MO coefficient file

 -----------------------------------------------------------------------
  General SCF calculation program by
  Eric Jon Sundstrom, Paul Horn, Yuezhi Mao, Dmitri Zuev, Alec White,
  David Stuck, Shaama M.S., Shane Yost, Joonho Lee, David Small,
  Daniel Levine, Susi Lehtola, Hugh Burton, Evgeny Epifanovsky
 -----------------------------------------------------------------------
 Exchange:     0.1670 Hartree-Fock + 1.0000 wB97X-V + LR-HF
 Correlation:  1.0000 wB97X-V
 Using SG-3 standard quadrature grid
 Nonlocal Correlation:  VV10 with C = 0.0100 and b = 6.00 and scale = 1.00000
 Grid used for NLC:  SG-1 standard quadrature
 
 Citation of the SMD model:
 Marenich, A.V.; Cramer, C.J.; Truhlar, D.G.
 J. Phys. Chem. B 2009, 113, 6378-6396.
 iSolventCode=           0
 Solvent: other                                                           
 
 vradii
            1           2           3           4           5           6
    1   2.2940000   1.8500000   1.8500000   2.2940000   2.2940000   1.8500000
            7           8           9          10          11
    1   2.1476001   1.2000000   1.2000000   1.2000000   1.2000000
 using 32 threads for integral computing
 -------------------------------------------------------
 OpenMP Integral computing Module                
 Release: version 1.0, May 2013, Q-Chem Inc. Pittsburgh 
 -------------------------------------------------------
 using 32 threads for integral computing
 -------------------------------------------------------
 OpenMP Integral computing Module                
 Release: version 1.0, May 2013, Q-Chem Inc. Pittsburgh 
 -------------------------------------------------------
 -------------------------------------------------------
 OpenMP BLAS3 based DFT computing Module                
 Release: version 1.0, May 2013, Q-Chem Inc. Pittsburgh 
 -------------------------------------------------------
 -------------------------------------------------------
 OpenMP BLAS3 based DFT computing Module                
 Release: version 1.0, May 2013, Q-Chem Inc. Pittsburgh 
 -------------------------------------------------------
 -------------------------------------------------------
 OpenMP BLAS3 based DFT computing Module                
 Release: version 1.0, May 2013, Q-Chem Inc. Pittsburgh 
 -------------------------------------------------------
 A unrestricted SCF calculation will be
 performed using Roothaan-Hall, DIIS
 SCF converges when DIIS error is below 1.0e-08
 ---------------------------------------
  Cycle       Energy         DIIS error
 ---------------------------------------
    1    -349.9297602408      7.05e-06  Roothaan Step
 ---------------------------------------
  Cycle       Energy         DIIS error
 ---------------------------------------
    1    -349.9295655777      1.71e-06  
    2    -349.9295658736      1.39e-06  
    3    -349.9295659806      5.58e-07  
    4    -349.9295660620      3.22e-07  
    5    -349.9295661045      2.38e-07  
    6    -349.9295661408      1.20e-07  
    7    -349.9295661538      7.29e-08  
    8    -349.9295661565      3.38e-08  
    9    -349.9295661570      1.31e-08  
   10    -349.9295661571      8.35e-09  Convergence criterion met
 ---------------------------------------
 SCF time:   CPU 1351.65s  wall 50.00s 
<S^2> =          0.763106656
(3)  G-ENP(liq) elect-nuc-pol free energy of system     -349.929566157 a.u.
(4)  G-CDS(liq) cavity-dispersion-solvent structure 
     free energy                                               -1.8040 kcal/mol
(6)  G-S(liq) free energy of system                     -349.932440956 a.u.
 SCF   energy in the final basis set =     -349.9295661571
 Total energy in the final basis set =     -349.9324409559
 
 --------------------------------------------------------------
 
                    Orbital Energies (a.u.)
 --------------------------------------------------------------
 
 Alpha MOs
 -- Occupied --
-19.2256 -19.2243 -19.1643 -10.3838 -10.3120 -10.3000  -2.0977  -1.2314
 -1.1197  -1.0923  -0.8882  -0.7533  -0.6724  -0.6159  -0.6002  -0.5758
 -0.5440  -0.5053  -0.4946  -0.4667  -0.4410  -0.4133  -0.3905  -0.3724
 -0.1951
 -- Virtual --
  0.0305   0.0453   0.0479   0.0550   0.0864   0.0943   0.1054   0.1105
  0.1145   0.1312   0.1357   0.1401   0.1463   0.1563   0.1605   0.1709
  0.1756   0.1795   0.1928   0.2022   0.2089   0.2223   0.2338   0.2433
  0.2607   0.2772   0.2774   0.2908   0.2922   0.3080   0.3172   0.3239
  0.3303   0.3400   0.3476   0.3577   0.3618   0.3721   0.3803   0.3840
  0.3900   0.3969   0.3983   0.4114   0.4190   0.4206   0.4256   0.4347
  0.4446   0.4513   0.4621   0.4667   0.4769   0.4836   0.4905   0.4980
  0.5011   0.5103   0.5185   0.5360   0.5488   0.5518   0.5610   0.5639
  0.5735   0.5820   0.5962   0.6112   0.6239   0.6311   0.6398   0.6626
  0.6631   0.6818   0.6917   0.7088   0.7139   0.7292   0.7408   0.7546
  0.7618   0.7740   0.7852   0.7871   0.7964   0.8059   0.8137   0.8245
  0.8483   0.8553   0.8651   0.8743   0.8888   0.9124   0.9318   0.9334
  0.9481   0.9703   0.9811   1.0000   1.0461   1.0541   1.0609   1.0802
  1.1026   1.1182   1.1369   1.1466   1.1573   1.1773   1.2074   1.2179
  1.2653   1.2765   1.2920   1.3085   1.3285   1.3447   1.3593   1.3646
  1.3764   1.4013   1.4253   1.4405   1.4578   1.4851   1.4975   1.5203
  1.5439   1.5544   1.5836   1.6482   1.6881   1.6984   1.7328   1.7504
  1.7602   1.7893   1.8638   1.8746   1.8974   1.9285   1.9375   1.9639
  1.9877   2.0266   2.0551   2.0988   2.1139   2.1712   2.2346   2.2451
  2.2870   2.3139   2.3301   2.3662   2.3995   2.4315   2.4471   2.4956
  2.5062   2.5634   2.6471   2.6884   2.7180   2.7673   2.8032   2.8440
  2.8946   2.9022   2.9370   2.9628   2.9962   3.0305   3.0490   3.0809
  3.1193   3.1473   3.1605   3.1936   3.1971   3.2231   3.2504   3.2977
  3.3045   3.3523   3.3604   3.3853   3.3896   3.4177   3.4271   3.4666
  3.4814   3.4908   3.5243   3.5339   3.5606   3.5829   3.6081   3.6208
  3.6505   3.6674   3.7167   3.7524   3.7721   3.7912   3.7990   3.8394
  3.8654   3.9182   3.9499   3.9589   3.9845   4.0207   4.0631   4.0859
  4.1185   4.1485   4.2489   4.2874   4.3101   4.3677   4.3711   4.4001
  4.4212   4.4308   4.5437   4.5928   4.6782   4.7211   4.7599   4.7734
  4.8336   4.8915   4.9434   4.9530   5.0375   5.0442   5.0668   5.0928
  5.1813   5.3013   5.3157   5.3360   5.3588   5.3724   5.4315   5.4497
  5.5191   5.5370   5.5539   5.6147   5.6379   5.6596   5.6777   5.6997
  5.7447   5.7684   5.8258   5.8661   5.8750   5.9587   5.9823   6.1014
  6.1092   6.1540   6.2510   6.2559   6.3057   6.3273   6.4367   6.4626
  6.5097   6.6627   6.7566   6.7771   6.8678   6.9603   6.9906   7.0196
  7.0679   7.1424   7.1847   7.3033   7.3373   7.3944   7.4621   7.5218
  7.6061  14.8939  23.3319  23.5553  23.6320  44.2861  44.3663  44.4686
 
 Beta MOs
 -- Occupied --
-19.2245 -19.2236 -19.1607 -10.3782 -10.3114 -10.2949  -2.0974  -1.2249
 -1.1158  -1.0846  -0.8774  -0.7456  -0.6616  -0.6094  -0.5891  -0.5688
 -0.5345  -0.4953  -0.4887  -0.4594  -0.4376  -0.4086  -0.3785  -0.3659
 -- Virtual --
  0.0306   0.0469   0.0495   0.0517   0.0676   0.0882   0.1091   0.1137
  0.1195   0.1264   0.1371   0.1407   0.1443   0.1538   0.1603   0.1666
  0.1741   0.1781   0.1894   0.1969   0.2053   0.2124   0.2265   0.2374
  0.2459   0.2658   0.2801   0.2811   0.2938   0.2950   0.3105   0.3194
  0.3263   0.3319   0.3427   0.3494   0.3603   0.3649   0.3752   0.3817
  0.3865   0.3932   0.3994   0.4002   0.4125   0.4199   0.4235   0.4275
  0.4353   0.4463   0.4532   0.4638   0.4682   0.4796   0.4856   0.4943
  0.5013   0.5047   0.5126   0.5210   0.5388   0.5525   0.5535   0.5622
  0.5664   0.5750   0.5841   0.5979   0.6126   0.6253   0.6335   0.6413
  0.6630   0.6644   0.6830   0.6933   0.7099   0.7161   0.7328   0.7424
  0.7557   0.7644   0.7762   0.7869   0.7893   0.7982   0.8074   0.8160
  0.8257   0.8498   0.8564   0.8666   0.8769   0.8901   0.9134   0.9336
  0.9343   0.9498   0.9728   0.9826   1.0013   1.0487   1.0562   1.0625
  1.0816   1.1037   1.1215   1.1397   1.1491   1.1597   1.1808   1.2123
  1.2201   1.2692   1.2778   1.2936   1.3127   1.3310   1.3460   1.3612
  1.3667   1.3811   1.4036   1.4278   1.4445   1.4608   1.4904   1.5012
  1.5237   1.5472   1.5576   1.5874   1.6510   1.6903   1.7002   1.7357
  1.7525   1.7623   1.7922   1.8686   1.8896   1.9007   1.9379   1.9416
  1.9704   1.9901   2.0325   2.0605   2.1031   2.1171   2.1739   2.2438
  2.2499   2.2916   2.3177   2.3335   2.3717   2.4038   2.4367   2.4523
  2.5017   2.5103   2.5687   2.6527   2.6923   2.7215   2.7725   2.8070
  2.8487   2.8974   2.9051   2.9408   2.9681   3.0016   3.0328   3.0545
  3.0860   3.1258   3.1523   3.1665   3.1982   3.2070   3.2274   3.2583
  3.3080   3.3112   3.3590   3.3726   3.3948   3.3973   3.4265   3.4370
  3.4790   3.4905   3.4952   3.5345   3.5410   3.5677   3.5877   3.6134
  3.6289   3.6564   3.6727   3.7214   3.7581   3.7782   3.7997   3.8053
  3.8417   3.8710   3.9217   3.9528   3.9633   3.9871   4.0246   4.0662
  4.0893   4.1231   4.1515   4.2516   4.2905   4.3113   4.3681   4.3718
  4.4024   4.4226   4.4326   4.5483   4.5953   4.6809   4.7246   4.7628
  4.7765   4.8366   4.8952   4.9472   4.9555   5.0422   5.0463   5.0695
  5.0978   5.1840   5.3068   5.3198   5.3424   5.3619   5.3755   5.4333
  5.4531   5.5216   5.5393   5.5564   5.6174   5.6418   5.6620   5.6809
  5.7025   5.7473   5.7712   5.8276   5.8700   5.8778   5.9627   5.9843
  6.1016   6.1106   6.1572   6.2563   6.2571   6.3080   6.3303   6.4432
  6.4668   6.5152   6.6747   6.7648   6.7833   6.8686   6.9632   6.9924
  7.0286   7.0705   7.1434   7.1880   7.3064   7.3422   7.3982   7.4633
  7.5224   7.6071  14.8942  23.3356  23.5615  23.6360  44.2896  44.3678
 44.4698
 --------------------------------------------------------------
 
          Ground-State Mulliken Net Atomic Charges

     Atom                 Charge (a.u.)    Spin (a.u.)
  --------------------------------------------------------
      1 O                    -0.193904      -0.085208
      2 C                     0.325148       0.649466
      3 C                    -0.025536       0.058311
      4 O                    -0.769808       0.087742
      5 O                    -0.509833      -0.145565
      6 C                    -0.051434       0.393839
      7 Li                    0.847633       0.029406
      8 H                     0.098333      -0.000652
      9 H                     0.068660       0.004553
     10 H                     0.100834       0.003799
     11 H                     0.109907       0.004308
  --------------------------------------------------------
  Sum of atomic charges =     0.000000
  Sum of spin   charges =     1.000000

  Building new vdw surfaces
         Merz-Kollman RESP Net Atomic Charges

     Atom                 Charge (a.u.)
  ----------------------------------------
      1 O                    -0.287693
      2 C                     0.243757
      3 C                     0.089859
      4 O                    -0.675030
      5 O                    -0.427602
      6 C                    -0.270987
      7 Li                    0.828501
      8 H                     0.084331
      9 H                     0.084331
     10 H                     0.165266
     11 H                     0.165266
  ----------------------------------------
  Sum of atomic charges =     0.000000

  Related Dipole Moment =     6.8181 (X  0.0153 Y  6.7874 Z -0.6463)

 -----------------------------------------------------------------
                    Cartesian Multipole Moments
 -----------------------------------------------------------------
    Charge (ESU x 10^10)
                 0.0000
    Dipole Moment (Debye)
         X      -0.1116      Y       6.9075      Z      -0.6994
       Tot       6.9437
    Quadrupole Moments (Debye-Ang)
        XX     -28.0063     XY     -12.4805     YY     -34.7521
        XZ      -0.5909     YZ      -2.9563     ZZ     -39.3624
    Octopole Moments (Debye-Ang^2)
       XXX     -15.6975    XXY      30.5625    XYY     -12.5513
       YYY      27.5755    XXZ       2.7119    XYZ       5.4332
       YYZ      -2.8521    XZZ       3.5814    YZZ       4.3925
       ZZZ      -4.7991
    Hexadecapole Moments (Debye-Ang^3)
      XXXX    -342.9362   XXXY     -79.7414   XXYY     -65.5948
      XYYY     -30.7363   YYYY    -197.7860   XXXZ      -5.7545
      XXYZ      -6.7288   XYYZ       1.6933   YYYZ     -10.2800
      XXZZ     -78.1451   XYZZ      -6.7444   YYZZ     -47.6725
      XZZZ      -7.1113   YZZZ     -10.0915   ZZZZ     -88.3521
 -----------------------------------------------------------------
 Calculating analytic gradient of the SCF energy
 Gradient of CDS energy
            1           2           3           4           5           6
    1   0.0011583  -0.0010387   0.0007311  -0.0003179   0.0001975   0.0003589
    2   0.0000213  -0.0010412  -0.0011836   0.0006384   0.0005773   0.0013095
    3  -0.0005098   0.0013465   0.0000399  -0.0003124  -0.0007282  -0.0000499
            7           8           9          10          11
    1  -0.0000781  -0.0002977  -0.0002520  -0.0002225  -0.0002389
    2  -0.0000424   0.0000283   0.0000949  -0.0001710  -0.0002314
    3  -0.0001032   0.0000793  -0.0000560   0.0002182   0.0000755
 Gradient of SCF Energy
            1           2           3           4           5           6
    1  -0.0029243  -0.0000251  -0.0009624   0.0019232   0.0013638  -0.0040767
    2  -0.0018359   0.0031451   0.0020559  -0.0075178  -0.0039255  -0.0083163
    3   0.0002877  -0.0021982   0.0008125   0.0020853   0.0005654   0.0047747
            7           8           9          10          11
    1  -0.0018629   0.0013998   0.0017534  -0.0004014   0.0038126
    2   0.0086318  -0.0002937  -0.0000700   0.0038066   0.0043198
    3  -0.0014749  -0.0024736   0.0019373  -0.0077104   0.0033942
 Max gradient component =       8.632E-03
 RMS gradient           =       3.640E-03
 Computing fast CPCM-SWIG gradient
 Updating gradient with PCM contributions...
 -- total gradient after adding PCM contribution --
---------------------------------------------------
  Atom         X              Y              Z     
---------------------------------------------------
   1      -0.000607       0.000142      -0.000074
   2       0.000244      -0.000329       0.000223
   3       0.000130      -0.000063       0.000012
   4       0.000080       0.000026      -0.000089
   5       0.000307       0.000111      -0.000098
   6      -0.000221       0.000053       0.000105
   7      -0.000069      -0.000022      -0.000047
   8       0.000061       0.000045      -0.000006
   9       0.000054       0.000038      -0.000007
  10      -0.000003      -0.000003       0.000000
  11       0.000024       0.000001      -0.000019
---------------------------------------------------
 Number of fixed atoms: 0
 Gradient time:  CPU 364.13 s  wall 16.32 s
 ----------------------------------------------------------------
             Standard Nuclear Orientation (Angstroms)
    I     Atom           X                Y                Z
 ----------------------------------------------------------------
    1      O       0.3173894239    -1.2753450240     0.0584897232
    2      C      -0.7361060776    -0.4468645479     0.2398657310
    3      C       1.5710374502    -0.4775429278    -0.0532307055
    4      O      -1.7767065369    -0.5268982419    -0.5043610280
    5      O      -0.3426820240     0.7445880710     0.6988883983
    6      C       1.1841065368     0.9572628359    -0.1139118564
    7      Li     -2.0400850624     1.2713275544    -0.1684825301
    8      H       2.0606959524    -0.8304834310    -0.9610332679
    9      H       2.1818513236    -0.7094514035     0.8208425151
   10      H       0.9584069033     1.3563881637    -1.0998760543
   11      H       1.7034271107     1.6473989511     0.5402600743
 ----------------------------------------------------------------
 Nuclear Repulsion Energy =         268.35354817 hartrees
 There are       25 alpha and       24 beta electrons
 Discretize the solute cavity surface with Lebedev spheres
	Using 110 Lebedev grid points for each H atom
	Using 194 Lebedev grid points for other atoms
	Atomic van der Waals radii will be scaled by 1.20
 Remove points where switching function is < 1.0e-08
 Keep 783 surface tesserae and discard 1015 interior tesserae
 Molecular Surface Area = 148.107 Angst**2

                       Distance Matrix (Angstroms)
             O (  1)   C (  2)   C (  3)   O (  4)   O (  5)   C (  6)
   C (  2)  1.352453
   C (  3)  1.490169  2.325889
   O (  4)  2.293951  1.281846  3.378364
   O (  5)  2.219445  1.336055  2.391989  2.262943
   C (  6)  2.401137  2.404984  1.487301  3.334906  1.742687
   Li(  7)  3.477750  2.195289  4.013980  1.848188  1.977616  3.239911
   H (  8)  2.067957  3.067804  1.090155  3.876386  3.318496  2.163807
   H (  9)  2.092280  2.986798  1.091274  4.178477  2.915883  2.155736
   H ( 10)  2.945969  2.813895  2.198655  3.373759  2.302756  1.087367
   H ( 11)  3.270418  3.229164  2.210234  4.234399  2.242051  1.083477
             Li(  7)   H (  8)   H (  9)   H ( 10)
   H (  8)  4.675698
   H (  9)  4.767284  1.790086
   H ( 10)  3.140969  2.452902  3.074682
   H ( 11)  3.828528  2.919148  2.421231  1.824771
 
 Requested basis set is def2-TZVPPD
 There are 119 shells and 321 basis functions
 A cutoff of  1.0D-14 yielded   6914 shell pairs
 There are     51114 function pairs (     65160 Cartesian)
 Smallest overlap matrix eigenvalue = 7.87E-06
 Guess MOs from SCF MO coefficient file

 -----------------------------------------------------------------------
  General SCF calculation program by
  Eric Jon Sundstrom, Paul Horn, Yuezhi Mao, Dmitri Zuev, Alec White,
  David Stuck, Shaama M.S., Shane Yost, Joonho Lee, David Small,
  Daniel Levine, Susi Lehtola, Hugh Burton, Evgeny Epifanovsky
 -----------------------------------------------------------------------
 Exchange:     0.1670 Hartree-Fock + 1.0000 wB97X-V + LR-HF
 Correlation:  1.0000 wB97X-V
 Using SG-3 standard quadrature grid
 Nonlocal Correlation:  VV10 with C = 0.0100 and b = 6.00 and scale = 1.00000
 Grid used for NLC:  SG-1 standard quadrature
 
 Citation of the SMD model:
 Marenich, A.V.; Cramer, C.J.; Truhlar, D.G.
 J. Phys. Chem. B 2009, 113, 6378-6396.
 iSolventCode=           0
 Solvent: other                                                           
 
 vradii
            1           2           3           4           5           6
    1   2.2940000   1.8500000   1.8500000   2.2940000   2.2940000   1.8500000
            7           8           9          10          11
    1   2.1476001   1.2000000   1.2000000   1.2000000   1.2000000
 using 32 threads for integral computing
 -------------------------------------------------------
 OpenMP Integral computing Module                
 Release: version 1.0, May 2013, Q-Chem Inc. Pittsburgh 
 -------------------------------------------------------
 using 32 threads for integral computing
 -------------------------------------------------------
 OpenMP Integral computing Module                
 Release: version 1.0, May 2013, Q-Chem Inc. Pittsburgh 
 -------------------------------------------------------
 -------------------------------------------------------
 OpenMP BLAS3 based DFT computing Module                
 Release: version 1.0, May 2013, Q-Chem Inc. Pittsburgh 
 -------------------------------------------------------
 -------------------------------------------------------
 OpenMP BLAS3 based DFT computing Module                
 Release: version 1.0, May 2013, Q-Chem Inc. Pittsburgh 
 -------------------------------------------------------
 -------------------------------------------------------
 OpenMP BLAS3 based DFT computing Module                
 Release: version 1.0, May 2013, Q-Chem Inc. Pittsburgh 
 -------------------------------------------------------
 A unrestricted SCF calculation will be
 performed using Roothaan-Hall, DIIS
 SCF converges when DIIS error is below 1.0e-08
 ---------------------------------------
  Cycle       Energy         DIIS error
 ---------------------------------------
    1    -349.9296111967      4.34e-06  Roothaan Step
 ---------------------------------------
  Cycle       Energy         DIIS error
 ---------------------------------------
    1    -349.9295682164      9.13e-07  
    2    -349.9295683283      4.67e-07  
    3    -349.9295683582      4.12e-07  
    4    -349.9295683798      1.72e-07  
    5    -349.9295683917      1.37e-07  
    6    -349.9295684043      7.59e-08  
    7    -349.9295684081      4.20e-08  
    8    -349.9295684090      2.08e-08  
    9    -349.9295684092      7.67e-09  Convergence criterion met
 ---------------------------------------
 SCF time:   CPU 1224.11s  wall 45.00s 
<S^2> =          0.763114119
(3)  G-ENP(liq) elect-nuc-pol free energy of system     -349.929568409 a.u.
(4)  G-CDS(liq) cavity-dispersion-solvent structure 
     free energy                                               -1.8026 kcal/mol
(6)  G-S(liq) free energy of system                     -349.932440976 a.u.
 SCF   energy in the final basis set =     -349.9295684092
 Total energy in the final basis set =     -349.9324409757
 
 --------------------------------------------------------------
 
                    Orbital Energies (a.u.)
 --------------------------------------------------------------
 
 Alpha MOs
 -- Occupied --
-19.2256 -19.2243 -19.1643 -10.3837 -10.3119 -10.3001  -2.0977  -1.2314
 -1.1198  -1.0923  -0.8882  -0.7534  -0.6724  -0.6159  -0.6003  -0.5758
 -0.5440  -0.5054  -0.4947  -0.4667  -0.4409  -0.4133  -0.3905  -0.3724
 -0.1951
 -- Virtual --
  0.0305   0.0453   0.0479   0.0550   0.0864   0.0943   0.1054   0.1105
  0.1145   0.1312   0.1357   0.1401   0.1463   0.1563   0.1605   0.1709
  0.1756   0.1795   0.1928   0.2022   0.2089   0.2224   0.2338   0.2433
  0.2608   0.2772   0.2775   0.2908   0.2922   0.3081   0.3172   0.3239
  0.3303   0.3400   0.3477   0.3577   0.3618   0.3722   0.3803   0.3840
  0.3901   0.3969   0.3983   0.4114   0.4190   0.4206   0.4256   0.4347
  0.4446   0.4514   0.4621   0.4667   0.4769   0.4836   0.4906   0.4980
  0.5011   0.5104   0.5186   0.5360   0.5488   0.5518   0.5610   0.5639
  0.5735   0.5820   0.5962   0.6112   0.6240   0.6311   0.6397   0.6626
  0.6632   0.6818   0.6917   0.7088   0.7139   0.7291   0.7408   0.7545
  0.7618   0.7740   0.7852   0.7871   0.7964   0.8059   0.8137   0.8245
  0.8483   0.8554   0.8651   0.8742   0.8888   0.9124   0.9318   0.9335
  0.9481   0.9703   0.9812   1.0000   1.0462   1.0541   1.0610   1.0802
  1.1026   1.1182   1.1368   1.1467   1.1576   1.1774   1.2075   1.2179
  1.2653   1.2765   1.2920   1.3086   1.3285   1.3447   1.3593   1.3647
  1.3764   1.4013   1.4254   1.4406   1.4578   1.4852   1.4977   1.5204
  1.5440   1.5544   1.5836   1.6483   1.6881   1.6985   1.7328   1.7504
  1.7602   1.7893   1.8639   1.8747   1.8974   1.9286   1.9375   1.9639
  1.9879   2.0267   2.0552   2.0990   2.1143   2.1713   2.2346   2.2453
  2.2873   2.3143   2.3301   2.3662   2.3995   2.4316   2.4471   2.4957
  2.5061   2.5635   2.6475   2.6883   2.7181   2.7674   2.8034   2.8440
  2.8948   2.9024   2.9373   2.9630   2.9964   3.0305   3.0490   3.0809
  3.1194   3.1472   3.1608   3.1939   3.1971   3.2232   3.2504   3.2977
  3.3045   3.3523   3.3604   3.3854   3.3897   3.4179   3.4271   3.4666
  3.4815   3.4909   3.5243   3.5340   3.5606   3.5831   3.6082   3.6208
  3.6507   3.6674   3.7167   3.7526   3.7723   3.7913   3.7991   3.8399
  3.8655   3.9185   3.9501   3.9593   3.9846   4.0207   4.0631   4.0859
  4.1188   4.1489   4.2492   4.2876   4.3101   4.3679   4.3712   4.4001
  4.4215   4.4308   4.5438   4.5928   4.6783   4.7211   4.7598   4.7734
  4.8338   4.8916   4.9435   4.9536   5.0378   5.0450   5.0668   5.0928
  5.1813   5.3014   5.3157   5.3360   5.3589   5.3726   5.4315   5.4497
  5.5192   5.5371   5.5539   5.6148   5.6383   5.6596   5.6779   5.6998
  5.7448   5.7686   5.8259   5.8663   5.8754   5.9594   5.9837   6.1014
  6.1099   6.1557   6.2515   6.2559   6.3058   6.3278   6.4366   6.4630
  6.5104   6.6626   6.7567   6.7773   6.8679   6.9606   6.9906   7.0197
  7.0681   7.1424   7.1851   7.3033   7.3373   7.3945   7.4628   7.5219
  7.6068  14.8939  23.3323  23.5552  23.6323  44.2862  44.3663  44.4700
 
 Beta MOs
 -- Occupied --
-19.2245 -19.2236 -19.1607 -10.3781 -10.3114 -10.2949  -2.0974  -1.2249
 -1.1159  -1.0845  -0.8774  -0.7458  -0.6617  -0.6095  -0.5892  -0.5688
 -0.5345  -0.4954  -0.4887  -0.4593  -0.4376  -0.4085  -0.3785  -0.3658
 -- Virtual --
  0.0306   0.0469   0.0495   0.0517   0.0676   0.0882   0.1091   0.1137
  0.1195   0.1264   0.1371   0.1407   0.1443   0.1538   0.1603   0.1666
  0.1741   0.1781   0.1894   0.1970   0.2053   0.2124   0.2265   0.2374
  0.2459   0.2659   0.2802   0.2811   0.2938   0.2950   0.3106   0.3194
  0.3263   0.3319   0.3427   0.3494   0.3603   0.3650   0.3753   0.3817
  0.3866   0.3932   0.3994   0.4003   0.4125   0.4199   0.4236   0.4275
  0.4353   0.4463   0.4532   0.4638   0.4682   0.4796   0.4857   0.4943
  0.5013   0.5047   0.5126   0.5210   0.5388   0.5525   0.5536   0.5622
  0.5664   0.5750   0.5841   0.5980   0.6126   0.6254   0.6335   0.6412
  0.6631   0.6645   0.6830   0.6932   0.7099   0.7161   0.7328   0.7424
  0.7557   0.7643   0.7762   0.7870   0.7893   0.7982   0.8075   0.8160
  0.8257   0.8498   0.8564   0.8666   0.8768   0.8902   0.9135   0.9336
  0.9344   0.9498   0.9728   0.9827   1.0014   1.0488   1.0562   1.0627
  1.0816   1.1038   1.1214   1.1397   1.1491   1.1600   1.1808   1.2124
  1.2201   1.2692   1.2778   1.2937   1.3128   1.3310   1.3460   1.3612
  1.3667   1.3811   1.4036   1.4279   1.4446   1.4607   1.4905   1.5014
  1.5238   1.5473   1.5575   1.5874   1.6511   1.6903   1.7003   1.7357
  1.7525   1.7623   1.7922   1.8688   1.8897   1.9007   1.9380   1.9416
  1.9704   1.9903   2.0327   2.0606   2.1033   2.1175   2.1740   2.2439
  2.2501   2.2919   2.3181   2.3336   2.3718   2.4038   2.4368   2.4523
  2.5018   2.5103   2.5688   2.6530   2.6922   2.7216   2.7726   2.8072
  2.8488   2.8975   2.9053   2.9411   2.9683   3.0018   3.0328   3.0545
  3.0861   3.1260   3.1522   3.1667   3.1986   3.2070   3.2275   3.2583
  3.3080   3.3113   3.3589   3.3726   3.3949   3.3976   3.4266   3.4370
  3.4790   3.4907   3.4954   3.5345   3.5411   3.5677   3.5878   3.6135
  3.6289   3.6565   3.6728   3.7214   3.7583   3.7784   3.7998   3.8053
  3.8421   3.8712   3.9220   3.9530   3.9637   3.9872   4.0247   4.0662
  4.0893   4.1234   4.1519   4.2518   4.2906   4.3113   4.3683   4.3719
  4.4024   4.4229   4.4327   4.5484   4.5953   4.6810   4.7247   4.7626
  4.7765   4.8368   4.8954   4.9474   4.9560   5.0425   5.0470   5.0695
  5.0977   5.1840   5.3069   5.3198   5.3424   5.3620   5.3757   5.4333
  5.4531   5.5217   5.5394   5.5564   5.6175   5.6421   5.6620   5.6810
  5.7026   5.7473   5.7714   5.8277   5.8702   5.8782   5.9634   5.9857
  6.1017   6.1113   6.1589   6.2564   6.2575   6.3081   6.3308   6.4431
  6.4672   6.5159   6.6747   6.7649   6.7835   6.8687   6.9636   6.9924
  7.0287   7.0707   7.1434   7.1885   7.3064   7.3422   7.3982   7.4640
  7.5224   7.6078  14.8942  23.3360  23.5614  23.6364  44.2896  44.3678
 44.4712
 --------------------------------------------------------------
 
          Ground-State Mulliken Net Atomic Charges

     Atom                 Charge (a.u.)    Spin (a.u.)
  --------------------------------------------------------
      1 O                    -0.193594      -0.085465
      2 C                     0.324339       0.650988
      3 C                    -0.025271       0.058004
      4 O                    -0.769819       0.087848
      5 O                    -0.509824      -0.145885
      6 C                    -0.050825       0.393112
      7 Li                    0.847621       0.029403
      8 H                     0.098162      -0.000668
      9 H                     0.068631       0.004548
     10 H                     0.100760       0.003813
     11 H                     0.109820       0.004302
  --------------------------------------------------------
  Sum of atomic charges =    -0.000000
  Sum of spin   charges =     1.000000

  Building new vdw surfaces
         Merz-Kollman RESP Net Atomic Charges

     Atom                 Charge (a.u.)
  ----------------------------------------
      1 O                    -0.287301
      2 C                     0.242394
      3 C                     0.090244
      4 O                    -0.674841
      5 O                    -0.427658
      6 C                    -0.269664
      7 Li                    0.828575
      8 H                     0.084114
      9 H                     0.084114
     10 H                     0.165011
     11 H                     0.165011
  ----------------------------------------
  Sum of atomic charges =     0.000000

  Related Dipole Moment =     6.8203 (X  0.0198 Y  6.7894 Z -0.6485)

 -----------------------------------------------------------------
                    Cartesian Multipole Moments
 -----------------------------------------------------------------
    Charge (ESU x 10^10)
                -0.0000
    Dipole Moment (Debye)
         X      -0.1070      Y       6.9097      Z      -0.7018
       Tot       6.9460
    Quadrupole Moments (Debye-Ang)
        XX     -28.0052     XY     -12.4779     YY     -34.7469
        XZ      -0.5918     YZ      -2.9548     ZZ     -39.3644
    Octopole Moments (Debye-Ang^2)
       XXX     -15.6914    XXY      30.5717    XYY     -12.5486
       YYY      27.5548    XXZ       2.7057    XYZ       5.4289
       YYZ      -2.8556    XZZ       3.5844    YZZ       4.3911
       ZZZ      -4.8036
    Hexadecapole Moments (Debye-Ang^3)
      XXXX    -342.9299   XXXY     -79.7077   XXYY     -65.5785
      XYYY     -30.7165   YYYY    -197.6776   XXXZ      -5.7698
      XXYZ      -6.7278   XYYZ       1.6923   YYYZ     -10.2777
      XXZZ     -78.1567   XYZZ      -6.7403   YYZZ     -47.6570
      XZZZ      -7.1152   YZZZ     -10.0873   ZZZZ     -88.3641
 -----------------------------------------------------------------
 Calculating analytic gradient of the SCF energy
 Gradient of CDS energy
            1           2           3           4           5           6
    1   0.0011605  -0.0010398   0.0007310  -0.0003186   0.0001975   0.0003589
    2   0.0000225  -0.0010437  -0.0011835   0.0006397   0.0005773   0.0013095
    3  -0.0005089   0.0013454   0.0000396  -0.0003121  -0.0007282  -0.0000499
            7           8           9          10          11
    1  -0.0000781  -0.0002978  -0.0002522  -0.0002225  -0.0002389
    2  -0.0000424   0.0000283   0.0000947  -0.0001710  -0.0002314
    3  -0.0001032   0.0000793  -0.0000558   0.0002182   0.0000755
 Gradient of SCF Energy
            1           2           3           4           5           6
    1  -0.0025104  -0.0001135  -0.0010711   0.0018814   0.0011459  -0.0039115
    2  -0.0013521   0.0031559   0.0019710  -0.0074735  -0.0041745  -0.0084492
    3   0.0004244  -0.0024049   0.0007840   0.0021880   0.0006497   0.0046735
            7           8           9          10          11
    1  -0.0018614   0.0013423   0.0016929  -0.0003976   0.0038029
    2   0.0086394  -0.0003383  -0.0001035   0.0038093   0.0043155
    3  -0.0014760  -0.0024742   0.0019399  -0.0077201   0.0034157
 Max gradient component =       8.639E-03
 RMS gradient           =       3.633E-03
 Computing fast CPCM-SWIG gradient
 Updating gradient with PCM contributions...
 -- total gradient after adding PCM contribution --
---------------------------------------------------
  Atom         X              Y              Z     
---------------------------------------------------
   1      -0.000194       0.000639       0.000073
   2       0.000165      -0.000320       0.000003
   3       0.000008      -0.000159      -0.000021
   4       0.000038       0.000075       0.000014
   5       0.000093      -0.000141      -0.000016
   6      -0.000043      -0.000071       0.000002
   7      -0.000071      -0.000018      -0.000046
   8       0.000002       0.000004       0.000000
   9      -0.000007       0.000005      -0.000007
  10      -0.000002      -0.000004       0.000001
  11       0.000010      -0.000010      -0.000002
---------------------------------------------------
 Number of fixed atoms: 0
 Gradient time:  CPU 363.36 s  wall 16.16 s
 ----------------------------------------------------------------
             Standard Nuclear Orientation (Angstroms)
    I     Atom           X                Y                Z
 ----------------------------------------------------------------
    1      O       0.3173894239    -1.2773450240     0.0584897232
    2      C      -0.7361060776    -0.4468645479     0.2398657310
    3      C       1.5710374502    -0.4775429278    -0.0532307055
    4      O      -1.7767065369    -0.5268982419    -0.5043610280
    5      O      -0.3426820240     0.7445880710     0.6988883983
    6      C       1.1841065368     0.9572628359    -0.1139118564
    7      Li     -2.0400850624     1.2713275544    -0.1684825301
    8      H       2.0606959524    -0.8304834310    -0.9610332679
    9      H       2.1818513236    -0.7094514035     0.8208425151
   10      H       0.9584069033     1.3563881637    -1.0998760543
   11      H       1.7034271107     1.6473989511     0.5402600743
 ----------------------------------------------------------------
 Nuclear Repulsion Energy =         268.29532536 hartrees
 There are       25 alpha and       24 beta electrons
 Discretize the solute cavity surface with Lebedev spheres
	Using 110 Lebedev grid points for each H atom
	Using 194 Lebedev grid points for other atoms
	Atomic van der Waals radii will be scaled by 1.20
 Remove points where switching function is < 1.0e-08
 Keep 783 surface tesserae and discard 1015 interior tesserae
 Molecular Surface Area = 148.130 Angst**2

                       Distance Matrix (Angstroms)
             O (  1)   C (  2)   C (  3)   O (  4)   O (  5)   C (  6)
   C (  2)  1.353679
   C (  3)  1.491240  2.325889
   O (  4)  2.294604  1.281846  3.378364
   O (  5)  2.221265  1.336055  2.391989  2.262943
   C (  6)  2.402997  2.404984  1.487301  3.334906  1.742687
   Li(  7)  3.479215  2.195289  4.013980  1.848188  1.977616  3.239911
   H (  8)  2.068388  3.067804  1.090155  3.876386  3.318496  2.163807
   H (  9)  2.092822  2.986798  1.091274  4.178477  2.915883  2.155736
   H ( 10)  2.947756  2.813895  2.198655  3.373759  2.302756  1.087367
   H ( 11)  3.272206  3.229164  2.210234  4.234399  2.242051  1.083477
             Li(  7)   H (  8)   H (  9)   H ( 10)
   H (  8)  4.675698
   H (  9)  4.767284  1.790086
   H ( 10)  3.140969  2.452902  3.074682
   H ( 11)  3.828528  2.919148  2.421231  1.824771
 
 Requested basis set is def2-TZVPPD
 There are 119 shells and 321 basis functions
 A cutoff of  1.0D-14 yielded   6914 shell pairs
 There are     51114 function pairs (     65160 Cartesian)
[...]
    11   -2.707806328789274e-03   7.392070532443548e-03  -1.117582424691340e-02


    11 Order 1, Length 33
    Atom      X          Y          Z
     1   -8.174468084227782e-03   1.183922950667280e-03   2.304798822082369e-03
     2    3.939113533346685e-04   4.393347872005933e-03  -2.714888624515677e-03
     3    1.142020493069761e-02   1.238487405688839e-02   4.403232929867406e-03
     4    1.974308385597629e-03  -1.523748793445222e-03   3.415164855429700e-03
     5   -1.856043083523297e-02  -1.776226934393232e-02  -3.989757512790461e-03
     6   -9.526223504703125e-02  -9.157538494992229e-02  -1.011455671309117e-01
     7    3.520268918451852e-04   5.677082639731846e-07   7.603270120179204e-05
     8   -4.145037261872144e-04   8.350596422720856e-04   6.013878913985061e-04
     9    2.312335424250728e-04  -8.554602450711578e-04   7.309118217448897e-04
    10    6.213810707194256e-04  -3.084759025738332e-03  -2.707806328789274e-03
    11    1.074926833304378e-01   9.600419217122602e-02   9.892149404164088e-02

Order 1, Length 33
    Atom      X          Y          Z
     1   -1.613651077263503e-03  -4.412932661277474e-03   1.636057274755495e-04
     2    2.273436745400375e-03  -1.732681000943143e-03  -5.062272625774471e-04
     3   -1.413657512757534e-02  -1.097712998570635e-02  -1.573650513516792e-02
     4   -5.415473717599596e-04   3.294073769853792e-04  -2.053495120505128e-04
     5    1.711918647419502e-05   1.170171283767063e-03   3.531218226313516e-04
     6   -8.852204434727248e-02  -1.695033938499201e-01  -1.126906163624578e-01
     7   -1.099601277243396e-05  -1.497551446299037e-04   5.582994180319860e-05
     8    5.730312856552509e-04  -2.308965139571102e-03   1.294235705466352e-04
     9   -2.801390775675745e-04   1.574302656501139e-03   1.961054524057752e-04
    10    6.290114247183499e-03   9.293115620884775e-03   7.392070532443548e-03
    11    9.600419217122602e-02   1.767429694161659e-01   1.207592458607824e-01

Order 1, Length 33
    Atom      X          Y          Z
     1    5.995079220674191e-03   2.069312175318904e-03  -1.082095367315779e-03
     2    1.497424687439189e-04  -5.322350168982409e-04   1.011109379728059e-03
     3   -1.315935790673833e-03  -2.141770174828251e-04   3.486089295821409e-03
     4   -8.278130242431962e-04   5.704776003517700e-04  -1.368057058336362e-03
     5    1.098671406268299e-02   1.023934776267059e-02   3.826165797654712e-03
     6   -1.023691590092372e-01  -1.162096270029788e-01  -1.604422890154919e-01
     7    1.718649262442084e-05  -6.942462994495146e-05  -1.625687658299392e-04
     8   -2.296050900626716e-05   1.651937882439747e-05   4.542040561230329e-04
     9    9.516064512452157e-04   4.242392685956656e-04   6.677577807429815e-04
    10   -1.248624429314706e-02  -1.703934069651325e-02  -1.117582424691340e-02
    11    9.892149404164088e-02   1.207592458607824e-01   1.647340881064759e-01




 # Finishing finite difference calculation for IDERIV #
 ######################################################
 ######################################################
 Requested basis set is def2-TZVPPD
 There are 119 shells and 321 basis functions
 **********************************************************************
 **                                                                  **
 **                       VIBRATIONAL ANALYSIS                       **
 **                       --------------------                       **
 **                                                                  **
 **        VIBRATIONAL FREQUENCIES (CM**-1) AND NORMAL MODES         **
 **     FORCE CONSTANTS (mDYN/ANGSTROM) AND REDUCED MASSES (AMU)     **
 **                  INFRARED INTENSITIES (KM/MOL)                   **
 **                                                                  **
 **********************************************************************
 

 Mode:                 1                      2                      3
 Frequency:     -1249.58                  85.04                 133.50
 Force Cnst:     10.6650                 0.0116                 0.0826
 Red. Mass:      11.5926                 2.7129                 7.8699
 IR Active:          YES                    YES                    YES
 IR Intens:     4014.679                 18.837                 74.366
 Raman Active:       YES                    YES                    YES
               X      Y      Z        X      Y      Z        X      Y      Z
 O         -0.161 -0.001  0.077    0.013  0.034 -0.192   -0.027 -0.029  0.254
 C          0.167  0.261 -0.309    0.005  0.016 -0.037    0.016  0.075 -0.089
 C          0.068  0.102 -0.005    0.024 -0.017  0.227    0.020 -0.073 -0.032
 O          0.026 -0.078  0.124   -0.061 -0.007  0.059    0.127  0.069 -0.247
 O         -0.412 -0.230  0.210    0.034  0.015 -0.061    0.019  0.099 -0.149
 C          0.506  0.047 -0.244    0.043 -0.024 -0.079    0.077 -0.056 -0.020
 Li        -0.002  0.029  0.014   -0.113 -0.035  0.170   -0.496 -0.175  0.600
 H         -0.173 -0.277  0.015    0.382 -0.123  0.460   -0.176 -0.131 -0.115
 H         -0.015 -0.023  0.008   -0.294  0.115  0.489    0.158 -0.095 -0.138
 H          0.111  0.054 -0.118    0.065 -0.227 -0.168    0.136 -0.024 -0.018
 H         -0.037  0.077  0.096    0.009  0.108 -0.192    0.097 -0.096  0.008
 TransDip  -1.653 -1.147  0.268    0.000 -0.049  0.130   -0.179 -0.061  0.201

 Mode:                 4                      5                      6
 Frequency:       171.54                 319.16                 481.65
 Force Cnst:      0.0602                 0.4393                 1.0393
 Red. Mass:       3.4727                 7.3195                 7.6036
 IR Active:          YES                    YES                    YES
 IR Intens:        2.108                 80.693                100.730
 Raman Active:       YES                    YES                    YES
               X      Y      Z        X      Y      Z        X      Y      Z
 O         -0.017  0.035 -0.062   -0.000 -0.020  0.092    0.124 -0.173  0.127
 C          0.004  0.037 -0.025   -0.062 -0.091 -0.125    0.059 -0.141 -0.151
 C          0.037 -0.037 -0.055    0.008  0.086  0.032    0.236  0.112  0.020
 O         -0.109 -0.096  0.147   -0.117 -0.166 -0.014   -0.146  0.151  0.103
 O          0.010  0.096 -0.164   -0.099  0.017 -0.263    0.026 -0.207 -0.117
 C          0.168  0.013  0.213   -0.022  0.072  0.047   -0.087 -0.011  0.027
 Li        -0.175 -0.088 -0.113    0.622  0.221  0.460   -0.367  0.543 -0.097
 H         -0.075  0.079 -0.160   -0.021  0.089  0.019    0.189  0.097  0.009
 H          0.089 -0.260 -0.152    0.009  0.075  0.023    0.227  0.162  0.032
 H          0.446  0.288  0.263    0.213  0.160  0.030   -0.072 -0.062  0.001
 H          0.117 -0.207  0.489   -0.195  0.027  0.233   -0.331  0.127  0.074
 TransDip  -0.018 -0.029 -0.032    0.230  0.076  0.155   -0.221  0.233 -0.013

 Mode:                 7                      8                      9
 Frequency:       562.05                 629.70                 684.92
 Force Cnst:      1.5164                 0.8449                 2.4959
 Red. Mass:       8.1473                 3.6166                 9.0303
 IR Active:          YES                    YES                    YES
 IR Intens:       53.794                 70.400                 38.830
 Raman Active:       YES                    YES                    YES
               X      Y      Z        X      Y      Z        X      Y      Z
 O          0.137  0.106 -0.128    0.093  0.138  0.006   -0.023  0.276  0.117
 C         -0.005  0.019  0.143   -0.033  0.042 -0.046   -0.221  0.050 -0.098
 C         -0.047 -0.187 -0.028    0.254 -0.064 -0.004    0.051  0.037  0.008
 O          0.209 -0.267 -0.025   -0.120  0.085  0.001   -0.271 -0.302 -0.200
 O         -0.221  0.153  0.046   -0.140  0.051  0.017    0.333 -0.135  0.182
 C         -0.017 -0.147  0.020   -0.055 -0.193  0.061    0.142  0.031  0.002
 Li        -0.184  0.641  0.068    0.099 -0.173  0.011   -0.089  0.173 -0.015
 H         -0.029  0.005 -0.109    0.039  0.078 -0.179   -0.077 -0.051 -0.031
 H          0.106 -0.241 -0.135    0.407 -0.252 -0.160    0.131 -0.014 -0.058
 H         -0.112 -0.240  0.006   -0.352 -0.521 -0.002   -0.188 -0.130  0.009
 H          0.159 -0.131 -0.138   -0.095  0.116 -0.240    0.448  0.136 -0.343
 TransDip  -0.107  0.208 -0.020    0.236 -0.127 -0.019    0.037  0.184 -0.067

 Mode:                10                     11                     12
 Frequency:       738.13                 822.56                 837.77
 Force Cnst:      1.5250                 1.2750                 0.9185
 Red. Mass:       4.7505                 3.1982                 2.2211
 IR Active:          YES                    YES                    YES
 IR Intens:       82.966                 23.739                 62.566
 Raman Active:       YES                    YES                    YES
               X      Y      Z        X      Y      Z        X      Y      Z
 O          0.177  0.080  0.017   -0.224 -0.004 -0.047    0.057  0.160  0.042
 C         -0.208 -0.192  0.269   -0.074 -0.018  0.149    0.059  0.078 -0.082
 C         -0.003 -0.022 -0.039    0.259  0.094 -0.035   -0.059 -0.075 -0.034
 O         -0.088  0.124 -0.083    0.073 -0.057 -0.038    0.018  0.001  0.035
 O         -0.130 -0.074 -0.011    0.039  0.025  0.020    0.034 -0.075  0.008
 C          0.199  0.043 -0.143   -0.012 -0.045 -0.049   -0.135 -0.097 -0.051
 Li        -0.017 -0.030  0.001   -0.015  0.033  0.008    0.006 -0.009 -0.001
 H          0.172 -0.101  0.076    0.131 -0.071 -0.026    0.100 -0.213  0.105
 H         -0.004  0.171  0.023    0.068 -0.051  0.048   -0.155  0.112  0.091
 H          0.634  0.317 -0.134    0.351 -0.043 -0.134    0.383  0.248 -0.032
 H          0.099 -0.207  0.208   -0.726  0.128  0.324   -0.507 -0.325  0.469
 TransDip   0.271  0.091 -0.058    0.084  0.126  0.039   -0.208 -0.133  0.056

 Mode:                13                     14                     15
 Frequency:       889.68                 957.63                1034.98
 Force Cnst:      0.7116                 1.2856                 1.0029
 Red. Mass:       1.5259                 2.3793                 1.5890
 IR Active:          YES                    YES                    YES
 IR Intens:       22.266                 15.448                 15.952
 Raman Active:       YES                    YES                    YES
               X      Y      Z        X      Y      Z        X      Y      Z
 O          0.003 -0.069  0.013    0.086 -0.146 -0.003   -0.050  0.033  0.005
 C         -0.009  0.021 -0.027   -0.005  0.057 -0.081    0.020 -0.043 -0.020
 C          0.093  0.003 -0.088   -0.008 -0.044  0.035   -0.007  0.155  0.007
 O         -0.045 -0.025 -0.021   -0.094 -0.034 -0.034    0.028  0.005  0.017
 O         -0.022  0.092  0.057    0.008  0.129  0.141   -0.014 -0.017  0.002
 C         -0.028 -0.031 -0.010   -0.049  0.046 -0.054   -0.049 -0.128  0.013
 Li         0.008 -0.001  0.002    0.003 -0.006 -0.000   -0.003  0.001 -0.000
 H          0.406 -0.274  0.192    0.007  0.304 -0.098   -0.028  0.307 -0.055
 H         -0.184  0.380  0.207    0.145 -0.157 -0.101   -0.020  0.135  0.000
 H         -0.230  0.369  0.203    0.769 -0.089 -0.311    0.509 -0.189 -0.140
 H          0.304 -0.364  0.082   -0.205  0.080  0.036    0.567 -0.402 -0.187
 TransDip   0.133  0.060 -0.040    0.029  0.045 -0.114    0.099 -0.056 -0.058

 Mode:                16                     17                     18
 Frequency:      1111.24                1148.75                1213.69
 Force Cnst:      1.5150                 1.0710                 1.7063
 Red. Mass:       2.0823                 1.3775                 1.9660
 IR Active:          YES                    YES                    YES
 IR Intens:       46.464                  5.332                 81.435
 Raman Active:       YES                    YES                    YES
               X      Y      Z        X      Y      Z        X      Y      Z
 O         -0.058  0.059  0.019    0.007  0.005  0.047   -0.016 -0.030  0.005
 C          0.034 -0.059 -0.032   -0.003  0.003  0.001   -0.071  0.189  0.067
 C          0.105 -0.125 -0.040   -0.049  0.002 -0.142    0.047 -0.085  0.044
 O          0.027  0.009  0.024    0.004  0.001  0.003    0.027 -0.013  0.005
 O         -0.040 -0.036  0.003   -0.005 -0.004 -0.001   -0.006 -0.109 -0.055
 C         -0.115  0.182  0.042    0.050 -0.016  0.072   -0.055  0.044 -0.046
 Li        -0.002  0.003  0.000    0.000 -0.001  0.000    0.013 -0.008  0.006
 H          0.089 -0.458  0.076    0.554  0.285  0.067    0.451  0.697 -0.061
 H         -0.096 -0.317  0.057   -0.527 -0.093  0.159    0.174 -0.140 -0.052
 H          0.440  0.074 -0.152    0.062 -0.368 -0.077   -0.062  0.294  0.053
 H          0.433  0.181 -0.358   -0.151  0.292 -0.096    0.229 -0.163 -0.042
 TransDip   0.166 -0.135 -0.045   -0.042  0.039 -0.046   -0.069  0.262  0.101

 Mode:                19                     20                     21
 Frequency:      1263.46                1386.74                1464.78
 Force Cnst:      1.5408                 1.9299                 8.3537
 Red. Mass:       1.6383                 1.7033                 6.6082
 IR Active:          YES                    YES                    YES
 IR Intens:       99.722                 67.796                878.786
 Raman Active:       YES                    YES                    YES
               X      Y      Z        X      Y      Z        X      Y      Z
 O          0.031 -0.050 -0.031   -0.078  0.054  0.008   -0.084  0.033 -0.007
 C         -0.063  0.155  0.047   -0.003 -0.134 -0.086    0.521  0.034  0.278
 C         -0.017  0.001 -0.052   -0.028 -0.129  0.010    0.011 -0.100  0.002
 O          0.011 -0.011 -0.000    0.032  0.013  0.034   -0.247 -0.030 -0.184
 O         -0.006 -0.063 -0.032    0.001  0.039  0.025   -0.047 -0.038 -0.029
 C         -0.011 -0.002  0.103    0.039  0.009  0.003   -0.009  0.025  0.013
 Li         0.011 -0.009  0.006   -0.008  0.000 -0.005    0.001  0.038  0.010
 H         -0.098 -0.402  0.066    0.277  0.375 -0.027   -0.189  0.334 -0.255
 H          0.263  0.687 -0.052    0.448  0.677 -0.096   -0.106  0.495  0.226
 H          0.261 -0.301 -0.083    0.031  0.088  0.030    0.055 -0.066 -0.038
 H          0.014  0.209 -0.132   -0.089  0.182 -0.067    0.010  0.018  0.007
 TransDip  -0.216  0.205  0.116    0.048 -0.209 -0.154    0.863  0.163  0.362

 Mode:                22                     23                     24
 Frequency:      1472.79                1509.83                3099.22
 Force Cnst:      1.4434                 1.6709                 5.9934
 Red. Mass:       1.1294                 1.2441                 1.0590
 IR Active:          YES                    YES                    YES
 IR Intens:       22.312                 61.090                 50.306
 Raman Active:       YES                    YES                    YES
               X      Y      Z        X      Y      Z        X      Y      Z
 O          0.017 -0.005 -0.001   -0.014 -0.002 -0.001   -0.002 -0.001  0.001
 C         -0.018  0.013 -0.003    0.061  0.001  0.028    0.002 -0.001 -0.000
 C          0.022 -0.001  0.005   -0.074  0.073  0.003   -0.058  0.033 -0.015
 O          0.006 -0.000  0.004   -0.027 -0.003 -0.020   -0.000  0.000 -0.000
 O         -0.002 -0.002  0.000   -0.004  0.000 -0.002    0.000  0.000 -0.000
 C          0.004 -0.097  0.010    0.000 -0.065  0.008    0.002  0.002  0.001
 Li         0.001 -0.001  0.000    0.001  0.004  0.001    0.000 -0.000  0.000
 H         -0.264  0.098 -0.176    0.444 -0.231  0.389    0.243 -0.182 -0.485
 H         -0.250  0.061  0.199    0.396 -0.282 -0.405    0.443 -0.172  0.662
 H          0.178  0.566  0.228    0.093  0.261  0.117    0.009 -0.011  0.030
 H         -0.090  0.413 -0.436   -0.061  0.193 -0.215   -0.027 -0.032 -0.033
 TransDip  -0.088  0.119 -0.033    0.235  0.008  0.085   -0.215  0.055 -0.048

 Mode:                25                     26                     27
 Frequency:      3145.49                3161.14                3246.82
 Force Cnst:      6.1975                 6.5016                 6.9252
 Red. Mass:       1.0631                 1.1043                 1.1150
 IR Active:          YES                    YES                    YES
 IR Intens:        1.678                 21.538                  8.081
 Raman Active:       YES                    YES                    YES
               X      Y      Z        X      Y      Z        X      Y      Z
 O          0.000 -0.000 -0.000    0.000 -0.000  0.000   -0.000  0.000  0.000
 C         -0.001 -0.001  0.001   -0.001 -0.000  0.000    0.001  0.001 -0.001
 C          0.002 -0.000  0.030    0.005 -0.014 -0.090   -0.002  0.001 -0.009
 O         -0.000  0.000 -0.000    0.000  0.000 -0.000    0.000 -0.000  0.000
 O          0.001  0.000 -0.000    0.000  0.000  0.000   -0.000 -0.000  0.001
 C          0.002  0.053 -0.037    0.005  0.021 -0.005   -0.043 -0.030 -0.083
 Li        -0.000  0.000 -0.000   -0.000  0.000 -0.000    0.000  0.000 -0.000
 H          0.102 -0.074 -0.188   -0.346  0.261  0.652   -0.025  0.020  0.048
 H         -0.120  0.048 -0.172    0.287 -0.116  0.412    0.041 -0.018  0.059
 H          0.183 -0.293  0.741    0.051 -0.083  0.209    0.109 -0.193  0.464
 H         -0.225 -0.295 -0.301   -0.114 -0.152 -0.152    0.399  0.539  0.517
 TransDip  -0.017  0.033 -0.018   -0.017  0.015 -0.147   -0.015 -0.010 -0.089

 STANDARD THERMODYNAMIC QUANTITIES AT   298.15 K  AND     1.00 ATM

   This Molecule has  1 Imaginary Frequencies
   Zero point vibrational energy:       45.135 kcal/mol

   Atom    1 Element O  Has Mass   15.99491
   Atom    2 Element C  Has Mass   12.00000
   Atom    3 Element C  Has Mass   12.00000
   Atom    4 Element O  Has Mass   15.99491
   Atom    5 Element O  Has Mass   15.99491
   Atom    6 Element C  Has Mass   12.00000
   Atom    7 Element Li Has Mass    7.01600
   Atom    8 Element H  Has Mass    1.00783
   Atom    9 Element H  Has Mass    1.00783
   Atom   10 Element H  Has Mass    1.00783
   Atom   11 Element H  Has Mass    1.00783
   Molecular Mass:    95.032050 amu
   Principal axes and moments of inertia in amu*Bohr^2:
                             1           2           3
    Eigenvalues --      312.22476   581.54395   790.49851
          X               0.99625     0.05281    -0.06848
          Y              -0.06156     0.98925    -0.13268
          Z               0.06074     0.13640     0.98879
   Rotational Symmetry Number is   1
   The Molecule is an Asymmetric Top
   Translational Enthalpy:        0.889 kcal/mol
   Rotational Enthalpy:           0.889 kcal/mol
   Vibrational Enthalpy:         47.388 kcal/mol
   gas constant (RT):             0.592 kcal/mol
   Translational Entropy:        39.566  cal/mol.K
   Rotational Entropy:           26.465  cal/mol.K
   Vibrational Entropy:          13.559  cal/mol.K

   Total Enthalpy:               49.758 kcal/mol
   Total Entropy:                79.589  cal/mol.K
Archival summary:
1\1\nid12991\FREQ\ProcedureUnspecified\BasisUnspecified\33i14(2)\ewcss\WedOct1606:24:402019WedOct1606:24:402019\0\\#,FREQ,ProcedureUnspecified,BasisUnspecified,\\0,2\O\C,1,1.33606\O,2,1.28185,1,119.617\O,2,1.35307,1,111.314,3,149.19,0\C,4,1.4907,2,109.653,1,-20.4585,0\H,5,1.09016,4,105.466,2,-128.913,0\H,5,1.09127,4,107.266,2,113.52,0\C,5,1.4873,4,107.531,2,-7.75382,0\H,8,1.08348,5,117.72,4,131.475,0\H,8,1.08737,5,116.429,4,-87.0476,0\Li,3,1.84819,2,87.101,1,-6.21036,0\\\@

 Total job time:  3963.23s(wall), 102576.36s(cpu) 
 Wed Oct 16 06:24:40 2019

        *************************************************************
        *                                                           *
        *  Thank you very much for using Q-Chem.  Have a nice day.  *
        *                                                           *
        *************************************************************


