
Running Job 1 of 1 mol.qin
qchem mol.qin_187057.0 /tmp/scratch/ 0
/clusterfs/mp/software/qchem/exe/qcprog.exe_s mol.qin_187057.0 /tmp/scratch/
                  Welcome to Q-Chem
     A Quantum Leap Into The Future Of Chemistry


 Q-Chem 5.2, Q-Chem, Inc., Pleasanton, CA (2019)

 Yihan Shao,  Zhengting Gan,  E. Epifanovsky,  A. T. B. Gilbert,  M. Wormit,  
 J. Kussmann,  A. W. Lange,  A. Behn,  Jia Deng,  Xintian Feng,  D. Ghosh,  
 M. Goldey,  P. R. Horn,  L. D. Jacobson,  I. Kaliman,  T. Kus,  A. Landau,  
 Jie Liu,  E. I. Proynov,  R. M. Richard,  R. P. Steele,  E. J. Sundstrom,  
 H. L. Woodcock III,  P. M. Zimmerman,  D. Zuev,  B. Alam,  B. Albrecht,  
 E. Alguire,  S. A. Baeppler,  D. Barton,  Z. Benda,  Y. A. Bernard,  
 E. J. Berquist,  K. B. Bravaya,  H. Burton,  K. Carter-Fenk,  D. Casanova,  
 Chun-Min Chang,  Yunqing Chen,  A. Chien,  K. D. Closser,  M. P. Coons,  
 S. Coriani,  S. Dasgupta,  A. L. Dempwolff,  M. Diedenhofen,  Hainam Do,  
 R. G. Edgar,  Po-Tung Fang,  S. Faraji,  S. Fatehi,  Qingguo Feng,  
 J. Fosso-Tande,  J. Gayvert,  Qinghui Ge,  A. Ghysels,  G. Gidofalvi,  
 J. Gomes,  J. Gonthier,  A. Gunina,  D. Hait,  M. W. D. Hanson-Heine,  
 P. H. P. Harbach,  A. W. Hauser,  M. F. Herbst,  J. E. Herr,  
 E. G. Hohenstein,  Z. C. Holden,  Kerwin Hui,  B. C. Huynh,  T.-C. Jagau,  
 Hyunjun Ji,  B. Kaduk,  K. Khistyaev,  Jaehoon Kim,  P. Klunzinger,  K. Koh,  
 D. Kosenkov,  L. Koulias,  T. Kowalczyk,  C. M. Krauter,  A. Kunitsa,  
 Ka Un Lao,  A. Laurent,  K. V. Lawler,  Joonho Lee,  D. Lefrancois,  
 S. Lehtola,  D. S. Levine,  Yi-Pei Li,  You-Sheng Lin,  Fenglai Liu,  
 Kuan-Yu Liu,  E. Livshits,  M. Loipersberger,  A. Luenser,  P. Manohar,  
 E. Mansoor,  S. F. Manzer,  Shan-Ping Mao,  Yuezhi Mao,  N. Mardirossian,  
 A. V. Marenich,  T. Markovich,  L. A. Martinez-Martinez,  S. A. Maurer,  
 N. J. Mayhall,  S. C. McKenzie,  J.-M. Mewes,  P. Morgante,  A. F. Morrison,  
 J. W. Mullinax,  K. Nanda,  T. S. Nguyen-Beck,  R. Olivares-Amaya,  
 J. A. Parkhill,  S. K. Paul,  Zheng Pei,  T. M. Perrine,  F. Plasser,  
 P. Pokhilko,  S. Prager,  A. Prociuk,  E. Ramos,  B. Rana,  D. R. Rehn,  
 F. Rob,  M. Scheurer,  M. Schneider,  N. Sergueev,  S. M. Sharada,  
 S. Sharma,  D. W. Small,  T. Stauch,  C. J. Stein,  T. Stein,  Yu-Chuan Su,  
 S. P. Veccham,  A. J. W. Thom,  A. Tkatchenko,  T. Tsuchimochi,  
 N. M. Tubman,  L. Vogt,  M. L. Vidal,  O. Vydrov,  M. A. Watson,  J. Wenzel,  
 M. de Wergifosse,  T. A. Wesolowski,  A. White,  J. Witte,  A. Yamada,  
 Jun Yang,  K. Yao,  S. Yeganeh,  S. R. Yost,  Zhi-Qiang You,  A. Zech,  
 Igor Ying Zhang,  Xing Zhang,  Yan Zhao,  Ying Zhu,  B. R. Brooks,  
 G. K. L. Chan,  C. J. Cramer,  M. S. Gordon,  W. J. Hehre,  A. Klamt,  
 M. W. Schmidt,  C. D. Sherrill,  D. G. Truhlar,  A. Aspuru-Guzik,  R. Baer,  
 A. T. Bell,  N. A. Besley,  Jeng-Da Chai,  A. E. DePrince, III,  
 R. A. DiStasio Jr.,  A. Dreuw,  B. D. Dunietz,  T. R. Furlani,  
 Chao-Ping Hsu,  Yousung Jung,  Jing Kong,  D. S. Lambrecht,  WanZhen Liang,  
 C. Ochsenfeld,  V. A. Rassolov,  L. V. Slipchenko,  J. E. Subotnik,  
 T. Van Voorhis,  J. M. Herbert,  A. I. Krylov,  P. M. W. Gill,  M. Head-Gordon

 Contributors to earlier versions of Q-Chem not listed above: 
 R. D. Adamson,  B. Austin,  J. Baker,  G. J. O. Beran,  K. Brandhorst,  
 S. T. Brown,  E. F. C. Byrd,  A. K. Chakraborty,  C.-L. Cheng,  
 Siu Hung Chien,  D. M. Chipman,  D. L. Crittenden,  H. Dachsel,  
 R. J. Doerksen,  A. D. Dutoi,  L. Fusti-Molnar,  W. A. Goddard III,  
 A. Golubeva-Zadorozhnaya,  S. R. Gwaltney,  G. Hawkins,  A. Heyden,  
 S. Hirata,  G. Kedziora,  F. J. Keil,  C. Kelley,  Jihan Kim,  R. A. King,  
 R. Z. Khaliullin,  P. P. Korambath,  W. Kurlancheek,  A. M. Lee,  M. S. Lee,  
 S. V. Levchenko,  Ching Yeh Lin,  D. Liotard,  R. C. Lochan,  I. Lotan,  
 P. E. Maslen,  N. Nair,  D. P. O'Neill,  D. Neuhauser,  E. Neuscamman,  
 C. M. Oana,  R. Olson,  B. Peters,  R. Peverati,  P. A. Pieniazek,  
 Y. M. Rhee,  J. Ritchie,  M. A. Rohrdanz,  E. Rosta,  N. J. Russ,  
 H. F. Schaefer III,  N. E. Schultz,  N. Shenvi,  A. C. Simmonett,  A. Sodt,  
 D. Stuck,  K. S. Thanthiriwatte,  V. Vanovschi,  Tao Wang,  A. Warshel,  
 C. F. Williams,  Q. Wu,  X. Xu,  W. Zhang

 Please cite Q-Chem as follows:
 Y. Shao et al., Mol. Phys. 113, 184-215 (2015)
 DOI: 10.1080/00268976.2014.952696

 Q-Chem 5.2.2 for Intel X86 EM64T Linux

 Parts of Q-Chem use Armadillo 8.300.2 (Tropical Shenanigans).
 http://arma.sourceforge.net/

 Q-Chem begins on Fri Jun 12 11:10:05 2020  

Host: 
0

     Scratch files written to /tmp/scratch//
 Nov2519 |scratch|qcdevops|jenkins|workspace|build_RNUM 6829   
Processing $rem in /clusterfs/mp/software/qchem/config/preferences:
	 MEM_TOTAL  96000 
NAlpha2: 60
NElect   59
Mult     2
Symmetry turned off for PCM/SM12/SMD calculation

Checking the input file for inconsistencies... 	...done.

--------------------------------------------------------------
User input:
--------------------------------------------------------------
$molecule
-1 2
C     -0.0770445354     -0.2013779534      0.8366233242
C      1.4010474505     -0.0699084468      0.8220662946
O      2.0013481534     -1.2297671436      0.1077251689
C      3.3313072071     -1.2551441809     -0.0002655890
O      4.0441677100     -0.3240251042      0.4794362410
O      3.8386991755     -2.2476913897     -0.6030195002
Li      5.4553812693     -1.3667052153     -0.2165074004
H     -0.4532414012     -1.0766302083      1.3614875613
H     -0.5630820491     -0.0433305191     -0.1247659042
H      1.8217708949     -0.0702984874      1.8288534643
H      1.7308481864      0.8311221950      0.3018845970
O     -0.7090098770      1.0783326569      1.9459751147
H     -0.7233921843      1.8729437967      1.3829866277
$end

$rem
job_type = freq
basis = def2-tzvppd
max_scf_cycles = 200
gen_scfman = true
xc_grid = 3
scf_algorithm = diis
resp_charges = true
symmetry = false
sym_ignore = true
method = wb97xv
solvent_method = smd
ideriv = 1
thresh = 14
$end

$smx
solvent other
$end
--------------------------------------------------------------
 ----------------------------------------------------------------
             Standard Nuclear Orientation (Angstroms)
    I     Atom           X                Y                Z
 ----------------------------------------------------------------
    1      C      -0.0770445354    -0.2013779534     0.8366233242
    2      C       1.4010474505    -0.0699084468     0.8220662946
    3      O       2.0013481534    -1.2297671436     0.1077251689
    4      C       3.3313072071    -1.2551441809    -0.0002655890
    5      O       4.0441677100    -0.3240251042     0.4794362410
    6      O       3.8386991755    -2.2476913897    -0.6030195002
    7      Li      5.4553812693    -1.3667052153    -0.2165074004
    8      H      -0.4532414012    -1.0766302083     1.3614875613
    9      H      -0.5630820491    -0.0433305191    -0.1247659042
   10      H       1.8217708949    -0.0702984874     1.8288534643
   11      H       1.7308481864     0.8311221950     0.3018845970
   12      O      -0.7090098770     1.0783326569     1.9459751147
   13      H      -0.7233921843     1.8729437967     1.3829866277
 ----------------------------------------------------------------
 Nuclear Repulsion Energy =         320.32751855 hartrees
 There are       30 alpha and       29 beta electrons
 Requested basis set is def2-TZVPPD
 There are 140 shells and 378 basis functions

 Total QAlloc Memory Limit  96000 MB
 Mega-Array Size       188 MB
 MEM_STATIC part       192 MB
 
 Citation of the SMD model:
 Marenich, A.V.; Cramer, C.J.; Truhlar, D.G.
 J. Phys. Chem. B 2009, 113, 6378-6396.
 iSolventCode=           0
 Solvent: other                                                           
 
 vradii
            1           2           3           4           5           6
    1   1.8500000   1.8500000   2.2940000   1.8500000   2.2940000   2.2940000
            7           8           9          10          11          12
    1   2.1476001   1.2000000   1.2000000   1.2000000   1.2000000   2.2940000
           13
    1   1.2000000
 Changing PCM_VDW_RADII to SMD_RADIUS
 Discretize the solute cavity surface with Lebedev spheres
	Using 110 Lebedev grid points for each H atom
	Using 194 Lebedev grid points for other atoms
	Atomic van der Waals radii will be scaled by 1.20
 Remove points where switching function is < 1.0e-08
 Keep 907 surface tesserae and discard 1195 interior tesserae
 Molecular Surface Area = 191.277 Angst**2

                       Distance Matrix (Angstroms)
             C (  1)   C (  2)   O (  3)   C (  4)   O (  5)   O (  6)
   C (  2)  1.483999
   O (  3)  2.430760  1.488595
   C (  4)  3.664378  2.409754  1.334577
   O (  5)  4.138480  2.677322  2.265314  1.266991
   O (  6)  4.646829  3.565916  2.217473  1.267245  2.216849
   Li(  7)  5.751070  4.381545  3.471919  2.137966  1.887602  1.881273
   H (  8)  1.087692  2.177809  2.760504  4.026046  4.644472  4.863273
   H (  9)  1.088798  2.180597  2.835134  4.080473  4.655169  4.946070
   H ( 10)  2.146439  1.091159  2.083002  2.651082  2.612346  3.837062
   H ( 11)  2.149530  1.091427  2.087614  2.646747  2.591783  3.839398
   O ( 12)  1.807678  2.652163  4.006561  5.055406  5.168176  6.183969
   H ( 13)  2.240332  2.933010  4.321726  5.304612  5.326603  6.460382
             Li(  7)   H (  8)   H (  9)   H ( 10)   H ( 11)   O ( 12)
   H (  8)  6.122584
   H (  9)  6.162924  1.813484
   H ( 10)  4.366611  2.531169  3.082998
   H ( 11)  4.355608  3.087479  2.491749  1.775517
   O ( 12)  6.975260  2.247423  2.359532  2.781712  2.952466
   H ( 13)  7.157580  2.961998  2.443588  3.233086  2.877059  0.973945

 
 A cutoff of  1.0D-14 yielded   9040 shell pairs
 There are     66266 function pairs (     83893 Cartesian)
 Smallest overlap matrix eigenvalue = 6.90E-06
 Guess from superposition of atomic densities
 Warning:  Energy on first SCF cycle will be non-variational
 SAD guess density has 58.000000 electrons

 -----------------------------------------------------------------------
  General SCF calculation program by
  Eric Jon Sundstrom, Paul Horn, Yuezhi Mao, Dmitri Zuev, Alec White,
  David Stuck, Shaama M.S., Shane Yost, Joonho Lee, David Small,
  Daniel Levine, Susi Lehtola, Hugh Burton, Evgeny Epifanovsky,
  Bang C. Huynh
 -----------------------------------------------------------------------
 Exchange:     0.1670 Hartree-Fock + 1.0000 wB97X-V + LR-HF
 Correlation:  1.0000 wB97X-V
 Using SG-3 standard quadrature grid
 Nonlocal Correlation:  VV10 with C = 0.0100 and b = 6.00 and scale = 1.00000
 Grid used for NLC:  SG-1 standard quadrature
 
 Citation of the SMD model:
 Marenich, A.V.; Cramer, C.J.; Truhlar, D.G.
 J. Phys. Chem. B 2009, 113, 6378-6396.
 iSolventCode=           0
 Solvent: other                                                           
 
 vradii
            1           2           3           4           5           6
    1   1.8500000   1.8500000   2.2940000   1.8500000   2.2940000   2.2940000
            7           8           9          10          11          12
    1   2.1476001   1.2000000   1.2000000   1.2000000   1.2000000   2.2940000
           13
    1   1.2000000
 using 32 threads for integral computing
 -------------------------------------------------------
 OpenMP Integral computing Module                
 Release: version 1.0, May 2013, Q-Chem Inc. Pittsburgh 
 -------------------------------------------------------
 using 32 threads for integral computing
 -------------------------------------------------------
 OpenMP Integral computing Module                
 Release: version 1.0, May 2013, Q-Chem Inc. Pittsburgh 
 -------------------------------------------------------
 -------------------------------------------------------
 OpenMP BLAS3 based DFT computing Module                
 Release: version 1.0, May 2013, Q-Chem Inc. Pittsburgh 
 -------------------------------------------------------
 -------------------------------------------------------
 OpenMP BLAS3 based DFT computing Module                
 Release: version 1.0, May 2013, Q-Chem Inc. Pittsburgh 
 -------------------------------------------------------
 -------------------------------------------------------
 OpenMP BLAS3 based DFT computing Module                
 Release: version 1.0, May 2013, Q-Chem Inc. Pittsburgh 
 -------------------------------------------------------
 A unrestricted SCF calculation will be
 performed using DIIS
 SCF converges when DIIS error is below 1.0e-08
 ---------------------------------------
  Cycle       Energy         DIIS error
 ---------------------------------------
    1    -426.6331873523      1.09e-02  
    2    -425.5542878902      2.35e-03  
    3    -425.4674273963      2.89e-03  
    4    -425.8698854461      3.44e-04  
    5    -425.8755589009      1.44e-04  
    6    -425.8770580585      3.44e-05  
    7    -425.8774874841      2.30e-05  
    8    -425.8777404952      1.54e-05  
    9    -425.8780150029      1.42e-05  
   10    -425.8782525500      1.11e-05  
   11    -425.8784551708      8.22e-06  
   12    -425.8786470217      5.62e-06  
   13    -425.8786939174      2.98e-06  
   14    -425.8787057659      1.77e-06  
   15    -425.8787097054      1.35e-06  
   16    -425.8787112448      6.07e-07  
   17    -425.8787117369      2.19e-07  
   18    -425.8787118016      1.13e-07  
   19    -425.8787118087      6.04e-08  
   20    -425.8787118125      2.77e-08  
   21    -425.8787118135      1.59e-08  
   22    -425.8787118137      8.45e-09  Convergence criterion met
 ---------------------------------------
 SCF time:   CPU 3418.19s  wall 130.00s 
<S^2> =          0.755616744
(3)  G-ENP(liq) elect-nuc-pol free energy of system     -425.878711814 a.u.
(4)  G-CDS(liq) cavity-dispersion-solvent structure 
     free energy                                               -3.5995 kcal/mol
(6)  G-S(liq) free energy of system                     -425.884448036 a.u.
 SCF   energy in the final basis set =     -425.8787118137
 Total energy in the final basis set =     -425.8844480361
 
 --------------------------------------------------------------
 
                    Orbital Energies (a.u.)
 --------------------------------------------------------------
 
 Alpha MOs
 -- Occupied --
-19.2146 -19.1595 -19.1555 -19.1305 -10.3949 -10.2864 -10.2449  -2.0817
 -1.2157  -1.1145  -1.0716  -1.0107  -0.8534  -0.7081  -0.6489  -0.5821
 -0.5768  -0.5560  -0.5308  -0.4839  -0.4781  -0.4409  -0.4266  -0.4085
 -0.3866  -0.3796  -0.3630  -0.3567  -0.3279  -0.1112
 -- Virtual --
  0.0364   0.0528   0.0541   0.0580   0.0910   0.1063   0.1113   0.1185
  0.1256   0.1369   0.1383   0.1409   0.1475   0.1534   0.1544   0.1571
  0.1775   0.1805   0.1873   0.1888   0.2049   0.2156   0.2229   0.2302
  0.2378   0.2565   0.2701   0.2747   0.2783   0.2894   0.2926   0.3043
  0.3132   0.3276   0.3315   0.3350   0.3435   0.3483   0.3580   0.3649
  0.3694   0.3829   0.3855   0.3935   0.3991   0.4040   0.4168   0.4215
  0.4228   0.4259   0.4273   0.4391   0.4466   0.4508   0.4538   0.4696
  0.4773   0.4860   0.4897   0.4941   0.5023   0.5091   0.5189   0.5218
  0.5284   0.5357   0.5467   0.5511   0.5618   0.5672   0.5833   0.5920
  0.6078   0.6125   0.6143   0.6215   0.6299   0.6327   0.6505   0.6630
  0.6687   0.6795   0.6908   0.6952   0.6977   0.7129   0.7211   0.7351
  0.7421   0.7592   0.7742   0.7781   0.7815   0.7854   0.8000   0.8114
  0.8184   0.8241   0.8380   0.8486   0.8504   0.8660   0.8729   0.8821
  0.8971   0.9184   0.9227   0.9357   0.9366   0.9602   0.9858   0.9992
  1.0156   1.0287   1.0341   1.0400   1.0505   1.0603   1.0681   1.0772
  1.1182   1.1374   1.1413   1.1599   1.1887   1.1909   1.2226   1.2276
  1.2331   1.2474   1.2774   1.2889   1.3017   1.3355   1.3402   1.3482
  1.3533   1.3643   1.3873   1.3939   1.4068   1.4323   1.4613   1.4743
  1.4846   1.4979   1.5359   1.5649   1.5782   1.5988   1.6403   1.6584
  1.7053   1.7370   1.7512   1.7542   1.7904   1.8207   1.8302   1.8784
  1.9123   1.9317   1.9367   1.9550   1.9832   2.0142   2.0167   2.0414
  2.0567   2.0781   2.1290   2.1469   2.1594   2.1888   2.1910   2.2743
  2.3039   2.3072   2.3519   2.3755   2.3943   2.3984   2.4620   2.4667
  2.4782   2.5149   2.5678   2.5862   2.6189   2.7297   2.7495   2.8133
  2.8799   2.9043   2.9343   2.9538   2.9623   2.9724   2.9849   2.9995
  3.0229   3.0381   3.0865   3.1102   3.1413   3.1543   3.1966   3.2085
  3.2525   3.2553   3.2960   3.3189   3.3237   3.3434   3.3619   3.3711
  3.3782   3.3970   3.4215   3.4446   3.4635   3.4744   3.4988   3.5143
  3.5235   3.5620   3.5733   3.5921   3.5965   3.6106   3.6357   3.6394
  3.6468   3.6584   3.6744   3.6946   3.7202   3.7531   3.8055   3.8335
  3.8758   3.9139   3.9734   3.9844   4.0197   4.0339   4.0637   4.0909
  4.1055   4.1392   4.1855   4.2087   4.2144   4.2681   4.2973   4.3225
  4.3403   4.3855   4.4117   4.4284   4.4722   4.4959   4.5230   4.5240
  4.5836   4.6376   4.7352   4.7421   4.7947   4.8309   4.8436   4.8951
  4.9550   5.0204   5.0496   5.0773   5.1581   5.1884   5.2687   5.2832
  5.2937   5.2992   5.3218   5.3581   5.3800   5.3949   5.4360   5.5004
  5.5064   5.5450   5.5703   5.6051   5.6201   5.6315   5.6599   5.6769
  5.6961   5.7068   5.7341   5.7482   5.8109   5.8338   5.8545   5.9543
  5.9827   6.0826   6.1029   6.1343   6.2745   6.2823   6.2863   6.3299
  6.3472   6.4561   6.5453   6.6243   6.6582   6.6683   6.7147   6.7327
  6.7377   6.8162   6.8348   6.8599   6.8998   6.9322   6.9448   6.9616
  6.9952   7.1043   7.1577   7.1718   7.2930   7.4148   7.4466   7.4818
  7.5227   7.6554   7.7318   7.7496  14.8433  23.4708  23.6595  23.9175
 44.1123  44.2013  44.3664  44.6426
 
 Beta MOs
 -- Occupied --
-19.2131 -19.1595 -19.1554 -19.1255 -10.3947 -10.2864 -10.2395  -2.0816
 -1.2145  -1.1126  -1.0715  -0.9977  -0.8459  -0.6984  -0.6454  -0.5805
 -0.5759  -0.5549  -0.5278  -0.4797  -0.4724  -0.4353  -0.4229  -0.4061
 -0.3788  -0.3644  -0.3621  -0.3558  -0.3219
 -- Virtual --
  0.0378   0.0538   0.0548   0.0611   0.0840   0.1013   0.1172   0.1183
  0.1288   0.1415   0.1424   0.1431   0.1498   0.1563   0.1575   0.1601
  0.1667   0.1819   0.1868   0.1892   0.1937   0.2076   0.2185   0.2275
  0.2337   0.2413   0.2609   0.2760   0.2779   0.2821   0.2930   0.2952
  0.3059   0.3156   0.3300   0.3342   0.3370   0.3457   0.3528   0.3609
  0.3677   0.3710   0.3842   0.3877   0.3993   0.4018   0.4067   0.4182
  0.4241   0.4249   0.4287   0.4295   0.4398   0.4487   0.4506   0.4554
  0.4699   0.4782   0.4877   0.4911   0.4947   0.5029   0.5117   0.5209
  0.5223   0.5295   0.5367   0.5472   0.5512   0.5626   0.5683   0.5841
  0.5933   0.6087   0.6133   0.6169   0.6222   0.6297   0.6330   0.6507
  0.6632   0.6691   0.6806   0.6911   0.6958   0.6985   0.7128   0.7212
  0.7365   0.7433   0.7598   0.7745   0.7783   0.7813   0.7862   0.8012
  0.8129   0.8194   0.8251   0.8415   0.8491   0.8510   0.8672   0.8736
  0.8832   0.8977   0.9188   0.9232   0.9362   0.9366   0.9615   0.9864
  1.0007   1.0167   1.0303   1.0341   1.0419   1.0510   1.0608   1.0691
  1.0779   1.1202   1.1379   1.1427   1.1599   1.1907   1.1924   1.2233
  1.2287   1.2337   1.2486   1.2779   1.2897   1.3029   1.3367   1.3410
  1.3492   1.3536   1.3657   1.3885   1.3955   1.4073   1.4340   1.4627
  1.4767   1.4857   1.4992   1.5373   1.5667   1.5797   1.6007   1.6413
  1.6604   1.7082   1.7388   1.7523   1.7557   1.7924   1.8215   1.8314
  1.8788   1.9138   1.9327   1.9385   1.9600   1.9866   2.0152   2.0185
  2.0499   2.0577   2.0787   2.1327   2.1486   2.1603   2.1909   2.1935
  2.2746   2.3052   2.3093   2.3526   2.3801   2.3974   2.3997   2.4626
  2.4677   2.4785   2.5192   2.5693   2.5912   2.6223   2.7325   2.7504
  2.8167   2.8881   2.9054   2.9364   2.9568   2.9656   2.9750   2.9861
  3.0009   3.0244   3.0411   3.0875   3.1141   3.1446   3.1570   3.2014
  3.2113   3.2563   3.2616   3.2983   3.3208   3.3248   3.3510   3.3627
  3.3732   3.3802   3.3999   3.4226   3.4486   3.4655   3.4810   3.5003
  3.5178   3.5273   3.5648   3.5752   3.5934   3.6023   3.6144   3.6374
  3.6405   3.6483   3.6613   3.6787   3.6970   3.7230   3.7566   3.8088
  3.8358   3.8772   3.9196   3.9758   3.9864   4.0219   4.0367   4.0662
  4.0942   4.1071   4.1409   4.1882   4.2113   4.2153   4.2714   4.3007
  4.3245   4.3419   4.3865   4.4128   4.4324   4.4749   4.4991   4.5249
  4.5269   4.5869   4.6399   4.7365   4.7434   4.7964   4.8324   4.8463
  4.8973   4.9569   5.0224   5.0508   5.0804   5.1623   5.1910   5.2713
  5.2867   5.2949   5.3017   5.3221   5.3589   5.3831   5.3964   5.4369
  5.5029   5.5111   5.5466   5.5727   5.6091   5.6215   5.6360   5.6632
  5.6817   5.6999   5.7091   5.7356   5.7528   5.8133   5.8387   5.8598
  5.9545   5.9849   6.0829   6.1037   6.1357   6.2748   6.2833   6.2878
  6.3300   6.3477   6.4568   6.5457   6.6245   6.6654   6.6701   6.7150
  6.7378   6.7426   6.8203   6.8426   6.8605   6.9032   6.9344   6.9550
  6.9617   6.9955   7.1070   7.1607   7.1760   7.2933   7.4154   7.4470
  7.4895   7.5246   7.6565   7.7350   7.7547  14.8433  23.4760  23.6609
 23.9176  44.1177  44.2014  44.3665  44.6442
 --------------------------------------------------------------
 
          Ground-State Mulliken Net Atomic Charges

     Atom                 Charge (a.u.)    Spin (a.u.)
  --------------------------------------------------------
      1 C                    -0.622332       0.616731
      2 C                     0.082018       0.171864
      3 O                    -0.089238      -0.099001
      4 C                     0.410693       0.308611
      5 O                    -0.774500      -0.034505
      6 O                    -0.806349       0.001449
      7 Li                    0.876806      -0.007751
      8 H                     0.028700       0.027972
      9 H                     0.068292       0.037168
     10 H                     0.030964       0.006629
     11 H                     0.046907       0.001938
     12 O                    -0.473199       0.074798
     13 H                     0.221240      -0.105903
  --------------------------------------------------------
  Sum of atomic charges =    -1.000000
  Sum of spin   charges =     1.000000

  Building new vdw surfaces
         Merz-Kollman RESP Net Atomic Charges

     Atom                 Charge (a.u.)
  ----------------------------------------
      1 C                     0.928328
      2 C                     0.278044
      3 O                    -0.894682
      4 C                     1.281279
      5 O                    -0.888153
      6 O                    -0.888153
      7 Li                    0.791624
      8 H                    -0.216315
      9 H                    -0.216315
     10 H                    -0.000295
     11 H                    -0.000295
     12 O                    -1.228185
     13 H                     0.053117
  ----------------------------------------
  Sum of atomic charges =    -1.000000

  Related Dipole Moment =    10.3251 (X  5.5928 Y -2.3777 Z -8.3471)

 -----------------------------------------------------------------
                    Cartesian Multipole Moments
 -----------------------------------------------------------------
    Charge (ESU x 10^10)
                -4.8032
    Dipole Moment (Debye)
         X       6.7955      Y      -3.5481      Z      -8.7245
       Tot      11.6139
    Quadrupole Moments (Debye-Ang)
        XX     -11.3371     XY       2.1624     YY     -67.0523
        XZ       6.6818     YZ     -17.4297     ZZ     -70.2488
    Octopole Moments (Debye-Ang^2)
       XXX      99.7382    XXY     -52.9795    XYY     -93.2341
       YYY      68.1153    XXZ     -62.5143    XYZ       1.8624
       YYZ     -42.5479    XZZ     -66.9717    YZZ     -12.4136
       ZZZ    -142.0695
    Hexadecapole Moments (Debye-Ang^3)
      XXXX     330.2806   XXXY    -158.4918   XXYY    -432.7823
      XYYY     449.5321   YYYY    -627.7398   XXXZ     -86.6051
      XXYZ     -78.5991   XYYZ      64.1387   YYYZ    -161.3852
      XXZZ    -444.7581   XYZZ     154.5370   YYZZ    -210.1507
      XZZZ      86.1551   YZZZ    -183.0141   ZZZZ    -522.7243
 -----------------------------------------------------------------
 Calculating analytic gradient of the SCF energy
 Gradient of CDS energy
            1           2           3           4           5           6
    1  -0.0010216   0.0003851  -0.0006352  -0.0001056   0.0001269   0.0005092
    2  -0.0004826   0.0002092   0.0004102  -0.0002628   0.0000620  -0.0000523
    3  -0.0003778   0.0000630   0.0003603  -0.0001500   0.0000281  -0.0000675
            7           8           9          10          11          12
    1   0.0000352   0.0001391   0.0001311   0.0000545   0.0001480   0.0003237
    2  -0.0000028   0.0002195   0.0001387   0.0000411  -0.0001650  -0.0002076
    3  -0.0000043   0.0000943   0.0002230  -0.0001313   0.0000717  -0.0002353
           13
    1  -0.0000905
    2   0.0000925
    3   0.0001259
 Gradient of SCF Energy
            1           2           3           4           5           6
    1  -0.0030551  -0.0179570   0.0293676  -0.0082889  -0.0080602  -0.0094447
    2  -0.0731484   0.0869420  -0.0301960  -0.0077383  -0.0007841   0.0035723
    3  -0.0593817   0.0633851  -0.0202022  -0.0034163   0.0005080   0.0026544
            7           8           9          10          11          12
    1   0.0102771   0.0063278   0.0127438  -0.0180258  -0.0127921   0.0112977
    2  -0.0006712   0.0527114   0.0113869   0.0108487  -0.0195389   0.0103975
    3  -0.0012773  -0.0094997   0.0466071  -0.0320696   0.0213532  -0.0215824
           13
    1   0.0076100
    2  -0.0437818
    3   0.0129215
 Max gradient component =       8.694E-02
 RMS gradient           =       2.956E-02
 Computing fast CPCM-SWIG gradient
 Updating gradient with PCM contributions...
 -- total gradient after adding PCM contribution --
---------------------------------------------------
  Atom         X              Y              Z     
---------------------------------------------------
   1       0.000024      -0.000037      -0.000030
   2      -0.000007      -0.000005      -0.000004
   3       0.000010       0.000000      -0.000009
   4      -0.000005       0.000002       0.000001
   5       0.000002      -0.000001       0.000004
   6       0.000003       0.000002      -0.000004
   7       0.000000       0.000001       0.000003
   8      -0.000002       0.000006      -0.000003
   9      -0.000000       0.000002       0.000002
  10      -0.000003      -0.000003      -0.000000
  11       0.000009       0.000002       0.000006
  12      -0.000033       0.000038       0.000020
  13       0.000003      -0.000007       0.000015
---------------------------------------------------
 Number of fixed atoms: 0
 Gradient time:  CPU 459.54 s  wall 19.78 s
 ######################################################
 ######################################################
 # Starting finite difference calculation for IDERIV  #
 Finite diff step size:  1.88973e-03 a.u.
 ----------------------------------------------------------------
             Standard Nuclear Orientation (Angstroms)
    I     Atom           X                Y                Z
 ----------------------------------------------------------------
    1      C      -0.0760445354    -0.2013779534     0.8366233242
    2      C       1.4010474505    -0.0699084468     0.8220662946
    3      O       2.0013481534    -1.2297671436     0.1077251689
    4      C       3.3313072071    -1.2551441809    -0.0002655890
    5      O       4.0441677100    -0.3240251042     0.4794362410
    6      O       3.8386991755    -2.2476913897    -0.6030195002
    7      Li      5.4553812693    -1.3667052153    -0.2165074004
    8      H      -0.4532414012    -1.0766302083     1.3614875613
    9      H      -0.5630820491    -0.0433305191    -0.1247659042
   10      H       1.8217708949    -0.0702984874     1.8288534643
   11      H       1.7308481864     0.8311221950     0.3018845970
   12      O      -0.7090098770     1.0783326569     1.9459751147
   13      H      -0.7233921843     1.8729437967     1.3829866277
 ----------------------------------------------------------------
 Nuclear Repulsion Energy =         320.34004414 hartrees
 There are       30 alpha and       29 beta electrons
 Discretize the solute cavity surface with Lebedev spheres
	Using 110 Lebedev grid points for each H atom
	Using 194 Lebedev grid points for other atoms
	Atomic van der Waals radii will be scaled by 1.20
 Remove points where switching function is < 1.0e-08
 Keep 907 surface tesserae and discard 1195 interior tesserae
 Molecular Surface Area = 191.276 Angst**2

                       Distance Matrix (Angstroms)
             C (  1)   C (  2)   O (  3)   C (  4)   O (  5)   O (  6)
   C (  2)  1.483003
   O (  3)  2.429905  1.488595
   C (  4)  3.663448  2.409754  1.334577
   O (  5)  4.137484  2.677322  2.265314  1.266991
   O (  6)  4.645986  3.565916  2.217473  1.267245  2.216849
   Li(  7)  5.750108  4.381545  3.471919  2.137966  1.887602  1.881273
   H (  8)  1.088038  2.177809  2.760504  4.026046  4.644472  4.863273
   H (  9)  1.089245  2.180597  2.835134  4.080473  4.655169  4.946070
   H ( 10)  2.145555  1.091159  2.083002  2.651082  2.612346  3.837062
   H ( 11)  2.148689  1.091427  2.087614  2.646747  2.591783  3.839398
   O ( 12)  1.808028  2.652163  4.006561  5.055406  5.168176  6.183969
   H ( 13)  2.240621  2.933010  4.321726  5.304612  5.326603  6.460382
             Li(  7)   H (  8)   H (  9)   H ( 10)   H ( 11)   O ( 12)
   H (  8)  6.122584
   H (  9)  6.162924  1.813484
   H ( 10)  4.366611  2.531169  3.082998
   H ( 11)  4.355608  3.087479  2.491749  1.775517
   O ( 12)  6.975260  2.247423  2.359532  2.781712  2.952466
   H ( 13)  7.157580  2.961998  2.443588  3.233086  2.877059  0.973945

 
 Requested basis set is def2-TZVPPD
 There are 140 shells and 378 basis functions
 A cutoff of  1.0D-14 yielded   9040 shell pairs
 There are     66266 function pairs (     83893 Cartesian)
 Smallest overlap matrix eigenvalue = 6.87E-06
 Guess MOs from SCF MO coefficient file

 -----------------------------------------------------------------------
  General SCF calculation program by
  Eric Jon Sundstrom, Paul Horn, Yuezhi Mao, Dmitri Zuev, Alec White,
  David Stuck, Shaama M.S., Shane Yost, Joonho Lee, David Small,
  Daniel Levine, Susi Lehtola, Hugh Burton, Evgeny Epifanovsky,
  Bang C. Huynh
 -----------------------------------------------------------------------
 Exchange:     0.1670 Hartree-Fock + 1.0000 wB97X-V + LR-HF
 Correlation:  1.0000 wB97X-V
 Using SG-3 standard quadrature grid
 Nonlocal Correlation:  VV10 with C = 0.0100 and b = 6.00 and scale = 1.00000
 Grid used for NLC:  SG-1 standard quadrature
 
 Citation of the SMD model:
 Marenich, A.V.; Cramer, C.J.; Truhlar, D.G.
 J. Phys. Chem. B 2009, 113, 6378-6396.
 iSolventCode=           0
 Solvent: other                                                           
 
 vradii
            1           2           3           4           5           6
    1   1.8500000   1.8500000   2.2940000   1.8500000   2.2940000   2.2940000
            7           8           9          10          11          12
    1   2.1476001   1.2000000   1.2000000   1.2000000   1.2000000   2.2940000
           13
    1   1.2000000
 using 32 threads for integral computing
 -------------------------------------------------------
 OpenMP Integral computing Module                
 Release: version 1.0, May 2013, Q-Chem Inc. Pittsburgh 
 -------------------------------------------------------
 using 32 threads for integral computing
 -------------------------------------------------------
 OpenMP Integral computing Module                
 Release: version 1.0, May 2013, Q-Chem Inc. Pittsburgh 
 -------------------------------------------------------
 -------------------------------------------------------
 OpenMP BLAS3 based DFT computing Module                
 Release: version 1.0, May 2013, Q-Chem Inc. Pittsburgh 
 -------------------------------------------------------
 -------------------------------------------------------
 OpenMP BLAS3 based DFT computing Module                
 Release: version 1.0, May 2013, Q-Chem Inc. Pittsburgh 
 -------------------------------------------------------
 -------------------------------------------------------
 OpenMP BLAS3 based DFT computing Module                
 Release: version 1.0, May 2013, Q-Chem Inc. Pittsburgh 
 -------------------------------------------------------
 A unrestricted SCF calculation will be
 performed using Roothaan-Hall, DIIS
 SCF converges when DIIS error is below 1.0e-08
 ---------------------------------------
  Cycle       Energy         DIIS error
 ---------------------------------------
    1    -418.3785104264      1.52e-04  Roothaan Step
 ---------------------------------------
  Cycle       Energy         DIIS error
 ---------------------------------------
    1    -425.8717697763      1.79e-04  
    2    -425.8760548360      1.92e-04  
    3    -425.8781985264      3.81e-05  
    4    -425.8785673356      1.76e-05  
    5    -425.8786706188      1.04e-05  
    6    -425.8786988329      3.96e-06  
    7    -425.8787056225      2.40e-06  
    8    -425.8787076102      1.24e-06  
    9    -425.8787087127      6.12e-07  
   10    -425.8787090432      3.48e-07  
   11    -425.8787091442      1.91e-07  
   12    -425.8787091742      1.31e-07  
   13    -425.8787091854      8.14e-08  
   14    -425.8787091900      4.35e-08  
   15    -425.8787091897      3.17e-08  
   16    -425.8787091905      2.48e-08  
   17    -425.8787091914      2.04e-08  
   18    -425.8787091921      1.59e-08  
   19    -425.8787091919      9.32e-09  Convergence criterion met
 ---------------------------------------
 SCF time:   CPU 3168.29s  wall 121.00s 
<S^2> =          0.755613720
(3)  G-ENP(liq) elect-nuc-pol free energy of system     -425.878709192 a.u.
(4)  G-CDS(liq) cavity-dispersion-solvent structure 
     free energy                                               -3.6007 kcal/mol
(6)  G-S(liq) free energy of system                     -425.884447340 a.u.
 SCF   energy in the final basis set =     -425.8787091919
 Total energy in the final basis set =     -425.8844473398
 
 --------------------------------------------------------------
 
                    Orbital Energies (a.u.)
 --------------------------------------------------------------
 
 Alpha MOs
 -- Occupied --
-19.2144 -19.1595 -19.1555 -19.1301 -10.3948 -10.2862 -10.2445  -2.0816
 -1.2156  -1.1144  -1.0716  -1.0104  -0.8533  -0.7079  -0.6488  -0.5820
 -0.5767  -0.5559  -0.5307  -0.4839  -0.4779  -0.4407  -0.4265  -0.4084
 -0.3865  -0.3795  -0.3629  -0.3566  -0.3277  -0.1112
 -- Virtual --
  0.0364   0.0528   0.0541   0.0580   0.0909   0.1063   0.1114   0.1185
  0.1256   0.1370   0.1383   0.1410   0.1475   0.1534   0.1544   0.1571
  0.1775   0.1805   0.1873   0.1889   0.2049   0.2156   0.2229   0.2302
  0.2378   0.2565   0.2701   0.2748   0.2784   0.2895   0.2927   0.3043
  0.3133   0.3277   0.3315   0.3350   0.3435   0.3484   0.3581   0.3649
  0.3695   0.3829   0.3855   0.3936   0.3991   0.4041   0.4168   0.4216
  0.4228   0.4259   0.4273   0.4391   0.4468   0.4508   0.4538   0.4696
  0.4773   0.4861   0.4897   0.4941   0.5024   0.5092   0.5189   0.5218
  0.5284   0.5358   0.5468   0.5512   0.5619   0.5673   0.5833   0.5921
  0.6078   0.6125   0.6145   0.6215   0.6299   0.6327   0.6506   0.6631
  0.6688   0.6796   0.6909   0.6953   0.6977   0.7130   0.7212   0.7352
  0.7422   0.7592   0.7743   0.7781   0.7815   0.7855   0.8001   0.8114
  0.8184   0.8242   0.8380   0.8486   0.8505   0.8660   0.8730   0.8823
  0.8972   0.9185   0.9227   0.9357   0.9366   0.9603   0.9858   0.9992
  1.0157   1.0288   1.0342   1.0400   1.0506   1.0603   1.0682   1.0773
  1.1183   1.1375   1.1414   1.1600   1.1888   1.1910   1.2227   1.2278
  1.2333   1.2475   1.2775   1.2890   1.3018   1.3356   1.3403   1.3483
  1.3534   1.3644   1.3875   1.3940   1.4068   1.4325   1.4614   1.4745
  1.4848   1.4980   1.5360   1.5651   1.5784   1.5989   1.6404   1.6586
  1.7053   1.7373   1.7512   1.7542   1.7906   1.8208   1.8302   1.8785
  1.9124   1.9318   1.9368   1.9551   1.9833   2.0144   2.0170   2.0418
  2.0569   2.0781   2.1291   2.1470   2.1595   2.1890   2.1911   2.2744
  2.3041   2.3074   2.3520   2.3759   2.3945   2.3986   2.4622   2.4669
  2.4782   2.5156   2.5681   2.5863   2.6190   2.7298   2.7496   2.8131
  2.8803   2.9044   2.9344   2.9541   2.9625   2.9725   2.9851   2.9995
  3.0229   3.0383   3.0867   3.1102   3.1414   3.1544   3.1966   3.2087
  3.2527   3.2555   3.2961   3.3190   3.3238   3.3435   3.3619   3.3713
  3.3784   3.3971   3.4216   3.4450   3.4636   3.4745   3.4988   3.5144
  3.5238   3.5621   3.5735   3.5921   3.5967   3.6108   3.6358   3.6394
  3.6468   3.6585   3.6746   3.6947   3.7204   3.7531   3.8059   3.8334
  3.8757   3.9137   3.9737   3.9846   4.0200   4.0339   4.0641   4.0916
  4.1057   4.1394   4.1857   4.2091   4.2145   4.2683   4.2981   4.3229
  4.3404   4.3860   4.4118   4.4290   4.4723   4.4961   4.5233   4.5241
  4.5836   4.6380   4.7354   4.7424   4.7942   4.8309   4.8438   4.8952
  4.9550   5.0205   5.0497   5.0776   5.1576   5.1886   5.2685   5.2834
  5.2939   5.2994   5.3218   5.3582   5.3803   5.3950   5.4360   5.5002
  5.5061   5.5451   5.5703   5.6051   5.6203   5.6314   5.6600   5.6769
  5.6962   5.7070   5.7342   5.7481   5.8112   5.8339   5.8548   5.9543
  5.9831   6.0827   6.1031   6.1345   6.2746   6.2824   6.2865   6.3299
  6.3473   6.4562   6.5454   6.6243   6.6584   6.6684   6.7147   6.7329
  6.7378   6.8164   6.8350   6.8600   6.9001   6.9323   6.9448   6.9616
  6.9952   7.1044   7.1578   7.1719   7.2931   7.4149   7.4467   7.4819
  7.5228   7.6555   7.7320   7.7497  14.8433  23.4702  23.6608  23.9176
 44.1124  44.2013  44.3665  44.6429
 
 Beta MOs
 -- Occupied --
-19.2130 -19.1594 -19.1554 -19.1251 -10.3947 -10.2862 -10.2391  -2.0816
 -1.2144  -1.1125  -1.0714  -0.9974  -0.8459  -0.6981  -0.6453  -0.5804
 -0.5759  -0.5548  -0.5276  -0.4797  -0.4721  -0.4351  -0.4226  -0.4060
 -0.3787  -0.3642  -0.3620  -0.3557  -0.3217
 -- Virtual --
  0.0378   0.0538   0.0548   0.0611   0.0840   0.1014   0.1171   0.1182
  0.1288   0.1415   0.1424   0.1431   0.1498   0.1563   0.1575   0.1601
  0.1668   0.1820   0.1868   0.1893   0.1936   0.2076   0.2185   0.2275
  0.2337   0.2413   0.2609   0.2760   0.2779   0.2821   0.2930   0.2952
  0.3060   0.3156   0.3300   0.3342   0.3370   0.3457   0.3528   0.3609
  0.3677   0.3711   0.3842   0.3878   0.3994   0.4018   0.4067   0.4182
  0.4241   0.4249   0.4287   0.4296   0.4398   0.4489   0.4506   0.4554
  0.4699   0.4782   0.4878   0.4911   0.4947   0.5030   0.5118   0.5210
  0.5224   0.5296   0.5367   0.5473   0.5512   0.5627   0.5684   0.5841
  0.5933   0.6087   0.6133   0.6170   0.6223   0.6297   0.6331   0.6508
  0.6633   0.6691   0.6807   0.6911   0.6959   0.6986   0.7129   0.7213
  0.7367   0.7433   0.7598   0.7746   0.7784   0.7814   0.7862   0.8013
  0.8128   0.8195   0.8252   0.8415   0.8491   0.8510   0.8673   0.8737
  0.8834   0.8978   0.9188   0.9232   0.9363   0.9367   0.9615   0.9864
  1.0007   1.0167   1.0303   1.0341   1.0419   1.0511   1.0608   1.0692
  1.0780   1.1202   1.1380   1.1428   1.1599   1.1908   1.1926   1.2234
  1.2289   1.2339   1.2487   1.2780   1.2899   1.3031   1.3368   1.3411
  1.3493   1.3537   1.3658   1.3887   1.3957   1.4074   1.4342   1.4629
  1.4769   1.4859   1.4993   1.5374   1.5669   1.5799   1.6008   1.6414
  1.6607   1.7083   1.7391   1.7523   1.7556   1.7927   1.8216   1.8314
  1.8789   1.9140   1.9328   1.9386   1.9601   1.9867   2.0154   2.0188
  2.0503   2.0579   2.0788   2.1329   2.1488   2.1604   2.1911   2.1937
  2.2747   2.3054   2.3095   2.3527   2.3806   2.3975   2.3999   2.4627
  2.4679   2.4785   2.5198   2.5695   2.5914   2.6225   2.7326   2.7505
  2.8166   2.8886   2.9055   2.9366   2.9572   2.9658   2.9751   2.9863
  3.0010   3.0244   3.0414   3.0876   3.1141   3.1448   3.1572   3.2015
  3.2114   3.2565   3.2618   3.2984   3.3209   3.3250   3.3512   3.3628
  3.3733   3.3805   3.4001   3.4228   3.4489   3.4656   3.4811   3.5003
  3.5179   3.5276   3.5649   3.5754   3.5935   3.6025   3.6145   3.6375
  3.6406   3.6483   3.6614   3.6789   3.6970   3.7232   3.7566   3.8092
  3.8356   3.8772   3.9195   3.9762   3.9867   4.0221   4.0367   4.0665
  4.0949   4.1073   4.1411   4.1884   4.2117   4.2154   4.2716   4.3015
  4.3249   4.3421   4.3870   4.4129   4.4330   4.4750   4.4993   4.5251
  4.5272   4.5869   4.6404   4.7367   4.7437   4.7958   4.8325   4.8465
  4.8974   4.9570   5.0225   5.0508   5.0807   5.1619   5.1912   5.2711
  5.2869   5.2951   5.3020   5.3222   5.3590   5.3835   5.3965   5.4369
  5.5026   5.5109   5.5468   5.5727   5.6091   5.6217   5.6360   5.6633
  5.6818   5.7000   5.7092   5.7358   5.7528   5.8136   5.8389   5.8601
  5.9545   5.9852   6.0830   6.1038   6.1360   6.2748   6.2835   6.2881
  6.3300   6.3477   6.4569   6.5458   6.6246   6.6656   6.6703   6.7151
  6.7379   6.7428   6.8205   6.8430   6.8606   6.9035   6.9345   6.9551
  6.9618   6.9956   7.1072   7.1609   7.1761   7.2933   7.4155   7.4471
  7.4897   7.5248   7.6567   7.7352   7.7549  14.8434  23.4755  23.6621
 23.9177  44.1179  44.2015  44.3666  44.6445
 --------------------------------------------------------------
 
          Ground-State Mulliken Net Atomic Charges

     Atom                 Charge (a.u.)    Spin (a.u.)
  --------------------------------------------------------
      1 C                    -0.622216       0.617595
      2 C                     0.085792       0.168441
      3 O                    -0.089347      -0.098659
      4 C                     0.409768       0.309533
      5 O                    -0.774497      -0.034553
      6 O                    -0.806447       0.001495
      7 Li                    0.876832      -0.007773
      8 H                     0.028439       0.027842
      9 H                     0.068295       0.036732
     10 H                     0.030834       0.006530
     11 H                     0.046789       0.001899
     12 O                    -0.474640       0.076396
     13 H                     0.220400      -0.105476
  --------------------------------------------------------
  Sum of atomic charges =    -1.000000
  Sum of spin   charges =     1.000000

  Building new vdw surfaces
         Merz-Kollman RESP Net Atomic Charges

     Atom                 Charge (a.u.)
  ----------------------------------------
      1 C                     0.920476
      2 C                     0.274414
      3 O                    -0.893911
      4 C                     1.281273
      5 O                    -0.888360
      6 O                    -0.888360
      7 Li                    0.791902
      8 H                    -0.214128
      9 H                    -0.214128
     10 H                     0.001025
     11 H                     0.001025
     12 O                    -1.227086
     13 H                     0.055859
  ----------------------------------------
  Sum of atomic charges =    -1.000000

  Related Dipole Moment =    10.3046 (X  5.5810 Y -2.3493 Z -8.3378)

 -----------------------------------------------------------------
                    Cartesian Multipole Moments
 -----------------------------------------------------------------
    Charge (ESU x 10^10)
                -4.8032
    Dipole Moment (Debye)
         X       6.7765      Y      -3.5082      Z      -8.7114
       Tot      11.5809
    Quadrupole Moments (Debye-Ang)
        XX     -11.3271     XY       2.1382     YY     -66.9624
        XZ       6.6589     YZ     -17.3726     ZZ     -70.2026
    Octopole Moments (Debye-Ang^2)
       XXX      99.5116    XXY     -52.8479    XYY     -93.3625
       YYY      68.5300    XXZ     -62.4398    XYZ       1.7988
       YYZ     -42.3613    XZZ     -67.0617    YZZ     -12.2285
       ZZZ    -141.8594
    Hexadecapole Moments (Debye-Ang^3)
      XXXX     330.1825   XXXY    -158.5788   XXYY    -432.5660
      XYYY     449.2536   YYYY    -626.4748   XXXZ     -86.8207
      XXYZ     -78.4127   XYYZ      63.9438   YYYZ    -160.7064
      XXZZ    -444.5541   XYZZ     154.3616   YYZZ    -209.6108
      XZZZ      85.8747   YZZZ    -182.4216   ZZZZ    -521.8408
 -----------------------------------------------------------------
 Calculating analytic gradient of the SCF energy
 Gradient of CDS energy
            1           2           3           4           5           6
    1  -0.0010163   0.0003842  -0.0006352  -0.0001056   0.0001269   0.0005092
    2  -0.0004842   0.0002091   0.0004103  -0.0002628   0.0000620  -0.0000523
    3  -0.0003769   0.0000631   0.0003602  -0.0001500   0.0000281  -0.0000675
            7           8           9          10          11          12
    1   0.0000352   0.0001381   0.0001288   0.0000544   0.0001479   0.0003227
    2  -0.0000028   0.0002193   0.0001407   0.0000411  -0.0001649  -0.0002079
    3  -0.0000043   0.0000948   0.0002229  -0.0001312   0.0000717  -0.0002366
           13
    1  -0.0000905
    2   0.0000925
    3   0.0001258
 Gradient of SCF Energy
            1           2           3           4           5           6
    1  -0.0025864  -0.0179809   0.0292472  -0.0082995  -0.0080920  -0.0094847
    2  -0.0727891   0.0864499  -0.0300268  -0.0076632  -0.0008049   0.0035929
    3  -0.0590154   0.0632170  -0.0201227  -0.0033910   0.0005022   0.0026702
            7           8           9          10          11          12
    1   0.0102939   0.0062643   0.0126109  -0.0180238  -0.0127938   0.0112843
    2  -0.0006738   0.0525460   0.0114134   0.0107919  -0.0196118   0.0102768
    3  -0.0012805  -0.0094662   0.0464299  -0.0321338   0.0213481  -0.0215994
           13
    1   0.0075605
    2  -0.0435013
    3   0.0128417
 Max gradient component =       8.645E-02
 RMS gradient           =       2.944E-02
 Computing fast CPCM-SWIG gradient
 Updating gradient with PCM contributions...
 -- total gradient after adding PCM contribution --
---------------------------------------------------
  Atom         X              Y              Z     
---------------------------------------------------
   1       0.000712       0.000455       0.000410
   2      -0.000267      -0.000093      -0.000041
   3      -0.000177       0.000090       0.000052
   4       0.000058       0.000012      -0.000001
   5      -0.000031      -0.000011       0.000002
   6      -0.000035       0.000022       0.000010
   7       0.000006       0.000001       0.000002
   8      -0.000142      -0.000165       0.000050
   9      -0.000187       0.000008      -0.000210
  10      -0.000045       0.000006      -0.000007
  11      -0.000022      -0.000002       0.000016
  12       0.000131      -0.000379      -0.000252
  13      -0.000002       0.000057      -0.000032
---------------------------------------------------
 Number of fixed atoms: 0
 Gradient time:  CPU 461.26 s  wall 19.68 s
 ----------------------------------------------------------------
             Standard Nuclear Orientation (Angstroms)
    I     Atom           X                Y                Z
 ----------------------------------------------------------------
    1      C      -0.0780445354    -0.2013779534     0.8366233242
    2      C       1.4010474505    -0.0699084468     0.8220662946
    3      O       2.0013481534    -1.2297671436     0.1077251689
    4      C       3.3313072071    -1.2551441809    -0.0002655890
    5      O       4.0441677100    -0.3240251042     0.4794362410
    6      O       3.8386991755    -2.2476913897    -0.6030195002
    7      Li      5.4553812693    -1.3667052153    -0.2165074004
    8      H      -0.4532414012    -1.0766302083     1.3614875613
    9      H      -0.5630820491    -0.0433305191    -0.1247659042
   10      H       1.8217708949    -0.0702984874     1.8288534643
   11      H       1.7308481864     0.8311221950     0.3018845970
   12      O      -0.7090098770     1.0783326569     1.9459751147
   13      H      -0.7233921843     1.8729437967     1.3829866277
 ----------------------------------------------------------------
 Nuclear Repulsion Energy =         320.31500357 hartrees
 There are       30 alpha and       29 beta electrons
 Discretize the solute cavity surface with Lebedev spheres
	Using 110 Lebedev grid points for each H atom
	Using 194 Lebedev grid points for other atoms
	Atomic van der Waals radii will be scaled by 1.20
 Remove points where switching function is < 1.0e-08
 Keep 907 surface tesserae and discard 1195 interior tesserae
 Molecular Surface Area = 191.278 Angst**2

                       Distance Matrix (Angstroms)
             C (  1)   C (  2)   O (  3)   C (  4)   O (  5)   O (  6)
   C (  2)  1.484995
   O (  3)  2.431615  1.488595
   C (  4)  3.665308  2.409754  1.334577
   O (  5)  4.139476  2.677322  2.265314  1.266991
   O (  6)  4.647672  3.565916  2.217473  1.267245  2.216849
   Li(  7)  5.752032  4.381545  3.471919  2.137966  1.887602  1.881273
   H (  8)  1.087346  2.177809  2.760504  4.026046  4.644472  4.863273
   H (  9)  1.088352  2.180597  2.835134  4.080473  4.655169  4.946070
   H ( 10)  2.147324  1.091159  2.083002  2.651082  2.612346  3.837062
   H ( 11)  2.150371  1.091427  2.087614  2.646747  2.591783  3.839398
   O ( 12)  1.807329  2.652163  4.006561  5.055406  5.168176  6.183969
   H ( 13)  2.240044  2.933010  4.321726  5.304612  5.326603  6.460382
             Li(  7)   H (  8)   H (  9)   H ( 10)   H ( 11)   O ( 12)
   H (  8)  6.122584
   H (  9)  6.162924  1.813484
   H ( 10)  4.366611  2.531169  3.082998
   H ( 11)  4.355608  3.087479  2.491749  1.775517
   O ( 12)  6.975260  2.247423  2.359532  2.781712  2.952466
   H ( 13)  7.157580  2.961998  2.443588  3.233086  2.877059  0.973945

 
 Requested basis set is def2-TZVPPD
 There are 140 shells and 378 basis functions
 A cutoff of  1.0D-14 yielded   9040 shell pairs
 There are     66266 function pairs (     83893 Cartesian)
 Smallest overlap matrix eigenvalue = 6.93E-06
 Guess MOs from SCF MO coefficient file

 -----------------------------------------------------------------------
  General SCF calculation program by
  Eric Jon Sundstrom, Paul Horn, Yuezhi Mao, Dmitri Zuev, Alec White,
  David Stuck, Shaama M.S., Shane Yost, Joonho Lee, David Small,
  Daniel Levine, Susi Lehtola, Hugh Burton, Evgeny Epifanovsky,
  Bang C. Huynh
 -----------------------------------------------------------------------
 Exchange:     0.1670 Hartree-Fock + 1.0000 wB97X-V + LR-HF
 Correlation:  1.0000 wB97X-V
 Using SG-3 standard quadrature grid
 Nonlocal Correlation:  VV10 with C = 0.0100 and b = 6.00 and scale = 1.00000
 Grid used for NLC:  SG-1 standard quadrature
 
 Citation of the SMD model:
 Marenich, A.V.; Cramer, C.J.; Truhlar, D.G.
 J. Phys. Chem. B 2009, 113, 6378-6396.
 iSolventCode=           0
 Solvent: other                                                           
 
 vradii
            1           2           3           4           5           6
    1   1.8500000   1.8500000   2.2940000   1.8500000   2.2940000   2.2940000
            7           8           9          10          11          12
    1   2.1476001   1.2000000   1.2000000   1.2000000   1.2000000   2.2940000
           13
    1   1.2000000
 using 32 threads for integral computing
 -------------------------------------------------------
 OpenMP Integral computing Module                
 Release: version 1.0, May 2013, Q-Chem Inc. Pittsburgh 
 -------------------------------------------------------
 using 32 threads for integral computing
 -------------------------------------------------------
 OpenMP Integral computing Module                
 Release: version 1.0, May 2013, Q-Chem Inc. Pittsburgh 
 -------------------------------------------------------
 -------------------------------------------------------
 OpenMP BLAS3 based DFT computing Module                
 Release: version 1.0, May 2013, Q-Chem Inc. Pittsburgh 
 -------------------------------------------------------
 -------------------------------------------------------
 OpenMP BLAS3 based DFT computing Module                
 Release: version 1.0, May 2013, Q-Chem Inc. Pittsburgh 
 -------------------------------------------------------
 -------------------------------------------------------
 OpenMP BLAS3 based DFT computing Module                
 Release: version 1.0, May 2013, Q-Chem Inc. Pittsburgh 
 -------------------------------------------------------
 A unrestricted SCF calculation will be
 performed using Roothaan-Hall, DIIS
 SCF converges when DIIS error is below 1.0e-08
 ---------------------------------------
  Cycle       Energy         DIIS error
 ---------------------------------------
    1    -418.3723684355      1.52e-04  Roothaan Step
 ---------------------------------------
  Cycle       Energy         DIIS error
 ---------------------------------------
    1    -425.8717525061      1.79e-04  
    2    -425.8760531126      1.92e-04  
    3    -425.8781974368      3.83e-05  
    4    -425.8785683488      1.77e-05  
    5    -425.8786727386      1.04e-05  
    6    -425.8787015502      4.05e-06  
    7    -425.8787085629      2.46e-06  
    8    -425.8787106675      1.23e-06  
    9    -425.8787119918      7.66e-07  
   10    -425.8787124770      5.30e-07  
   11    -425.8787127059      3.86e-07  
   12    -425.8787128406      3.12e-07  
   13    -425.8787129250      2.49e-07  
   14    -425.8787130100      1.75e-07  
   15    -425.8787130730      1.24e-07  
   16    -425.8787131166      7.94e-08  
   17    -425.8787131401      4.03e-08  
   18    -425.8787131442      2.10e-08  
   19    -425.8787131449      9.60e-09  Convergence criterion met
 ---------------------------------------
 SCF time:   CPU 3168.80s  wall 120.00s 
<S^2> =          0.755618150
(3)  G-ENP(liq) elect-nuc-pol free energy of system     -425.878713145 a.u.
(4)  G-CDS(liq) cavity-dispersion-solvent structure 
     free energy                                               -3.5983 kcal/mol
(6)  G-S(liq) free energy of system                     -425.884447432 a.u.
 SCF   energy in the final basis set =     -425.8787131449
 Total energy in the final basis set =     -425.8844474317
 
 --------------------------------------------------------------
 
                    Orbital Energies (a.u.)
 --------------------------------------------------------------
 
 Alpha MOs
 -- Occupied --
-19.2147 -19.1596 -19.1556 -19.1308 -10.3949 -10.2866 -10.2453  -2.0817
 -1.2158  -1.1145  -1.0717  -1.0109  -0.8534  -0.7084  -0.6490  -0.5822
 -0.5768  -0.5561  -0.5310  -0.4840  -0.4782  -0.4410  -0.4268  -0.4086
 -0.3868  -0.3797  -0.3630  -0.3567  -0.3281  -0.1111
 -- Virtual --
  0.0364   0.0528   0.0541   0.0581   0.0910   0.1062   0.1113   0.1185
  0.1255   0.1369   0.1383   0.1409   0.1475   0.1534   0.1544   0.1571
  0.1774   0.1804   0.1873   0.1888   0.2049   0.2156   0.2229   0.2302
  0.2377   0.2565   0.2700   0.2747   0.2783   0.2894   0.2926   0.3042
  0.3132   0.3276   0.3315   0.3350   0.3435   0.3483   0.3580   0.3648
  0.3694   0.3828   0.3854   0.3934   0.3991   0.4039   0.4168   0.4214
  0.4227   0.4258   0.4272   0.4390   0.4464   0.4507   0.4537   0.4696
  0.4773   0.4859   0.4897   0.4940   0.5023   0.5090   0.5188   0.5217
  0.5283   0.5357   0.5466   0.5511   0.5617   0.5671   0.5833   0.5919
  0.6077   0.6124   0.6142   0.6214   0.6299   0.6327   0.6505   0.6630
  0.6687   0.6795   0.6907   0.6952   0.6976   0.7128   0.7210   0.7350
  0.7421   0.7591   0.7742   0.7780   0.7814   0.7854   0.7999   0.8114
  0.8183   0.8241   0.8381   0.8486   0.8503   0.8659   0.8728   0.8819
  0.8971   0.9183   0.9227   0.9356   0.9365   0.9601   0.9858   0.9991
  1.0156   1.0287   1.0341   1.0399   1.0505   1.0602   1.0681   1.0771
  1.1181   1.1374   1.1412   1.1598   1.1886   1.1908   1.2225   1.2275
  1.2330   1.2474   1.2773   1.2887   1.3016   1.3354   1.3401   1.3481
  1.3532   1.3642   1.3872   1.3937   1.4067   1.4322   1.4611   1.4741
  1.4845   1.4978   1.5358   1.5647   1.5781   1.5987   1.6402   1.6582
  1.7052   1.7367   1.7512   1.7543   1.7901   1.8205   1.8302   1.8783
  1.9121   1.9316   1.9367   1.9550   1.9831   2.0139   2.0164   2.0410
  2.0565   2.0780   2.1288   2.1467   2.1593   2.1886   2.1908   2.2742
  2.3037   2.3070   2.3518   2.3752   2.3941   2.3983   2.4619   2.4665
  2.4781   2.5143   2.5676   2.5861   2.6187   2.7296   2.7494   2.8134
  2.8795   2.9042   2.9341   2.9535   2.9621   2.9723   2.9847   2.9995
  3.0228   3.0379   3.0864   3.1103   3.1411   3.1542   3.1965   3.2083
  3.2524   3.2551   3.2958   3.3188   3.3235   3.3433   3.3618   3.3709
  3.3779   3.3968   3.4213   3.4443   3.4634   3.4744   3.4987   3.5142
  3.5232   3.5618   3.5731   3.5920   3.5962   3.6105   3.6356   3.6393
  3.6467   3.6583   3.6742   3.6946   3.7200   3.7531   3.8050   3.8337
  3.8758   3.9140   3.9730   3.9841   4.0195   4.0339   4.0634   4.0902
  4.1053   4.1391   4.1853   4.2083   4.2143   4.2680   4.2964   4.3221
  4.3401   4.3850   4.4116   4.4278   4.4721   4.4957   4.5226   4.5238
  4.5836   4.6371   4.7349   4.7419   4.7953   4.8308   4.8435   4.8950
  4.9549   5.0204   5.0496   5.0770   5.1585   5.1882   5.2690   5.2830
  5.2935   5.2990   5.3217   5.3580   5.3796   5.3947   5.4360   5.5007
  5.5066   5.5449   5.5703   5.6052   5.6200   5.6315   5.6598   5.6769
  5.6960   5.7067   5.7339   5.7482   5.8107   5.8336   5.8543   5.9542
  5.9824   6.0825   6.1028   6.1340   6.2744   6.2821   6.2861   6.3299
  6.3472   6.4560   6.5452   6.6242   6.6579   6.6681   6.7146   6.7325
  6.7376   6.8160   6.8346   6.8598   6.8996   6.9320   6.9447   6.9615
  6.9951   7.1042   7.1576   7.1718   7.2930   7.4147   7.4466   7.4816
  7.5226   7.6552   7.7316   7.7494  14.8432  23.4713  23.6582  23.9174
 44.1121  44.2012  44.3664  44.6422
 
 Beta MOs
 -- Occupied --
-19.2133 -19.1596 -19.1555 -19.1258 -10.3948 -10.2866 -10.2399  -2.0817
 -1.2146  -1.1126  -1.0715  -0.9980  -0.8460  -0.6987  -0.6455  -0.5806
 -0.5760  -0.5549  -0.5279  -0.4798  -0.4726  -0.4354  -0.4231  -0.4061
 -0.3789  -0.3647  -0.3623  -0.3559  -0.3222
 -- Virtual --
  0.0378   0.0538   0.0548   0.0611   0.0840   0.1013   0.1172   0.1183
  0.1288   0.1415   0.1424   0.1431   0.1498   0.1563   0.1575   0.1601
  0.1667   0.1819   0.1868   0.1892   0.1937   0.2075   0.2185   0.2275
  0.2337   0.2413   0.2609   0.2759   0.2779   0.2820   0.2930   0.2952
  0.3059   0.3156   0.3300   0.3342   0.3370   0.3456   0.3528   0.3609
  0.3676   0.3710   0.3842   0.3877   0.3992   0.4018   0.4066   0.4182
  0.4240   0.4248   0.4286   0.4295   0.4398   0.4485   0.4506   0.4553
  0.4698   0.4782   0.4876   0.4911   0.4946   0.5029   0.5117   0.5209
  0.5223   0.5295   0.5367   0.5472   0.5511   0.5625   0.5682   0.5840
  0.5932   0.6087   0.6132   0.6168   0.6222   0.6296   0.6330   0.6507
  0.6632   0.6690   0.6806   0.6910   0.6958   0.6984   0.7128   0.7211
  0.7364   0.7432   0.7597   0.7744   0.7783   0.7813   0.7862   0.8011
  0.8129   0.8194   0.8251   0.8415   0.8490   0.8509   0.8671   0.8734
  0.8829   0.8976   0.9187   0.9232   0.9362   0.9365   0.9614   0.9864
  1.0006   1.0166   1.0302   1.0340   1.0418   1.0509   1.0607   1.0690
  1.0778   1.1201   1.1379   1.1426   1.1598   1.1907   1.1923   1.2232
  1.2286   1.2336   1.2486   1.2778   1.2896   1.3028   1.3365   1.3409
  1.3492   1.3535   1.3656   1.3884   1.3954   1.4073   1.4339   1.4625
  1.4765   1.4855   1.4990   1.5371   1.5665   1.5796   1.6006   1.6412
  1.6602   1.7081   1.7384   1.7522   1.7557   1.7922   1.8213   1.8314
  1.8787   1.9137   1.9326   1.9384   1.9599   1.9864   2.0149   2.0182
  2.0495   2.0575   2.0786   2.1325   2.1485   2.1602   2.1907   2.1933
  2.2745   2.3050   2.3090   2.3525   2.3797   2.3972   2.3995   2.4624
  2.4674   2.4784   2.5185   2.5690   2.5911   2.6221   2.7324   2.7503
  2.8168   2.8876   2.9053   2.9362   2.9565   2.9655   2.9749   2.9859
  3.0009   3.0243   3.0408   3.0873   3.1141   3.1444   3.1569   3.2013
  3.2112   3.2561   3.2614   3.2981   3.3207   3.3246   3.3509   3.3626
  3.3730   3.3799   3.3998   3.4225   3.4483   3.4654   3.4809   3.5002
  3.5177   3.5270   3.5646   3.5750   3.5933   3.6020   3.6142   3.6373
  3.6405   3.6482   3.6611   3.6785   3.6969   3.7228   3.7566   3.8084
  3.8359   3.8773   3.9197   3.9754   3.9861   4.0216   4.0366   4.0658
  4.0935   4.1069   4.1408   4.1881   4.2109   4.2151   4.2712   4.2999
  4.3241   4.3418   4.3860   4.4127   4.4317   4.4748   4.4989   4.5247
  4.5266   4.5869   4.6394   4.7363   4.7432   4.7969   4.8323   4.8461
  4.8972   4.9568   5.0223   5.0507   5.0800   5.1627   5.1907   5.2716
  5.2865   5.2948   5.3014   5.3221   5.3588   5.3828   5.3962   5.4369
  5.5031   5.5113   5.5465   5.5727   5.6091   5.6213   5.6360   5.6630
  5.6817   5.6997   5.7089   5.7354   5.7528   5.8130   5.8386   5.8596
  5.9544   5.9845   6.0828   6.1035   6.1354   6.2747   6.2831   6.2876
  6.3300   6.3476   6.4567   6.5456   6.6244   6.6652   6.6699   6.7149
  6.7378   6.7423   6.8201   6.8423   6.8604   6.9030   6.9342   6.9548
  6.9616   6.9955   7.1069   7.1606   7.1759   7.2932   7.4153   7.4469
  7.4893   7.5245   7.6563   7.7348   7.7545  14.8433  23.4766  23.6596
 23.9175  44.1176  44.2013  44.3665  44.6438
 --------------------------------------------------------------
 
          Ground-State Mulliken Net Atomic Charges

     Atom                 Charge (a.u.)    Spin (a.u.)
  --------------------------------------------------------
      1 C                    -0.622432       0.615841
      2 C                     0.078224       0.175308
      3 O                    -0.089121      -0.099351
      4 C                     0.411629       0.307676
      5 O                    -0.774504      -0.034456
      6 O                    -0.806249       0.001401
      7 Li                    0.876777      -0.007727
      8 H                     0.028961       0.028101
      9 H                     0.068295       0.037598
     10 H                     0.031090       0.006732
     11 H                     0.047021       0.001980
     12 O                    -0.471785       0.073242
     13 H                     0.222093      -0.106345
  --------------------------------------------------------
  Sum of atomic charges =    -1.000000
  Sum of spin   charges =     1.000000

  Building new vdw surfaces
         Merz-Kollman RESP Net Atomic Charges

     Atom                 Charge (a.u.)
  ----------------------------------------
      1 C                     0.933733
      2 C                     0.281535
      3 O                    -0.895350
      4 C                     1.281308
      5 O                    -0.887981
      6 O                    -0.887981
      7 Li                    0.791334
      8 H                    -0.217605
      9 H                    -0.217605
     10 H                    -0.001378
     11 H                    -0.001378
     12 O                    -1.228992
     13 H                     0.050361
  ----------------------------------------
  Sum of atomic charges =    -1.000000

  Related Dipole Moment =    10.3447 (X  5.6028 Y -2.4065 Z -8.3564)

 -----------------------------------------------------------------
                    Cartesian Multipole Moments
 -----------------------------------------------------------------
    Charge (ESU x 10^10)
                -4.8032
    Dipole Moment (Debye)
         X       6.8142      Y      -3.5879      Z      -8.7373
       Tot      11.6467
    Quadrupole Moments (Debye-Ang)
        XX     -11.3469     XY       2.1863     YY     -67.1425
        XZ       6.7041     YZ     -17.4864     ZZ     -70.2941
    Octopole Moments (Debye-Ang^2)
       XXX      99.9620    XXY     -53.1103    XYY     -93.1067
       YYY      67.7001    XXZ     -62.5874    XYZ       1.9251
       YYZ     -42.7337    XZZ     -66.8838    YZZ     -12.5973
       ZZZ    -142.2759
    Hexadecapole Moments (Debye-Ang^3)
      XXXX     330.3775   XXXY    -158.4058   XXYY    -432.9982
      XYYY     449.8089   YYYY    -629.0088   XXXZ     -86.3936
      XXYZ     -78.7836   XYYZ      64.3313   YYYZ    -162.0625
      XXZZ    -444.9582   XYZZ     154.7093   YYZZ    -210.6875
      XZZZ      86.4281   YZZZ    -183.6010   ZZZZ    -523.5932
 -----------------------------------------------------------------
 Calculating analytic gradient of the SCF energy
 Gradient of CDS energy
            1           2           3           4           5           6
    1  -0.0010270   0.0003860  -0.0006353  -0.0001055   0.0001269   0.0005092
    2  -0.0004808   0.0002093   0.0004101  -0.0002628   0.0000620  -0.0000523
    3  -0.0003788   0.0000628   0.0003604  -0.0001500   0.0000281  -0.0000675
            7           8           9          10          11          12
    1   0.0000352   0.0001401   0.0001335   0.0000545   0.0001481   0.0003248
    2  -0.0000028   0.0002197   0.0001365   0.0000412  -0.0001650  -0.0002074
    3  -0.0000043   0.0000937   0.0002230  -0.0001313   0.0000717  -0.0002337
           13
    1  -0.0000905
    2   0.0000925
    3   0.0001260
 Gradient of SCF Energy
            1           2           3           4           5           6
    1  -0.0035202  -0.0179351   0.0294865  -0.0082769  -0.0080288  -0.0094049
    2  -0.0735099   0.0874370  -0.0303638  -0.0078145  -0.0007633   0.0035518
    3  -0.0597502   0.0635534  -0.0202804  -0.0034425   0.0005138   0.0026387
            7           8           9          10          11          12
    1   0.0102602   0.0063925   0.0128773  -0.0180277  -0.0127900   0.0113076
    2  -0.0006686   0.0528753   0.0113600   0.0109055  -0.0194671   0.0105220
    3  -0.0012741  -0.0095348   0.0467846  -0.0320057   0.0213580  -0.0215625
           13
    1   0.0076594
    2  -0.0440645
    3   0.0130018
 Max gradient component =       8.744E-02
 RMS gradient           =       2.969E-02
 Computing fast CPCM-SWIG gradient
 Updating gradient with PCM contributions...
 -- total gradient after adding PCM contribution --
---------------------------------------------------
  Atom         X              Y              Z     
---------------------------------------------------
   1      -0.000662      -0.000527      -0.000469
   2       0.000250       0.000083       0.000031
   3       0.000195      -0.000089      -0.000069
   4      -0.000067      -0.000008       0.000002
   5       0.000034       0.000010       0.000007
   6       0.000040      -0.000018      -0.000019
   7      -0.000006       0.000000       0.000003
   8       0.000138       0.000176      -0.000055
   9       0.000187      -0.000004       0.000213
  10       0.000039      -0.000012       0.000007
  11       0.000040       0.000005      -0.000006
  12      -0.000197       0.000455       0.000293
  13       0.000008      -0.000071       0.000061
---------------------------------------------------
 Number of fixed atoms: 0
 Gradient time:  CPU 458.31 s  wall 19.29 s
 ----------------------------------------------------------------
             Standard Nuclear Orientation (Angstroms)
    I     Atom           X                Y                Z
 ----------------------------------------------------------------
    1      C      -0.0770445354    -0.2003779534     0.8366233242
    2      C       1.4010474505    -0.0699084468     0.8220662946
    3      O       2.0013481534    -1.2297671436     0.1077251689
    4      C       3.3313072071    -1.2551441809    -0.0002655890
    5      O       4.0441677100    -0.3240251042     0.4794362410
    6      O       3.8386991755    -2.2476913897    -0.6030195002
    7      Li      5.4553812693    -1.3667052153    -0.2165074004
    8      H      -0.4532414012    -1.0766302083     1.3614875613
    9      H      -0.5630820491    -0.0433305191    -0.1247659042
   10      H       1.8217708949    -0.0702984874     1.8288534643
   11      H       1.7308481864     0.8311221950     0.3018845970
   12      O      -0.7090098770     1.0783326569     1.9459751147
   13      H      -0.7233921843     1.8729437967     1.3829866277
 ----------------------------------------------------------------
 Nuclear Repulsion Energy =         320.33012525 hartrees
 There are       30 alpha and       29 beta electrons
 Discretize the solute cavity surface with Lebedev spheres
	Using 110 Lebedev grid points for each H atom
	Using 194 Lebedev grid points for other atoms
	Atomic van der Waals radii will be scaled by 1.20
 Remove points where switching function is < 1.0e-08
 Keep 907 surface tesserae and discard 1195 interior tesserae
 Molecular Surface Area = 191.277 Angst**2

                       Distance Matrix (Angstroms)
             C (  1)   C (  2)   O (  3)   C (  4)   O (  5)   O (  6)
   C (  2)  1.483910
   O (  3)  2.431183  1.488595
   C (  4)  3.664666  2.409754  1.334577
   O (  5)  4.138510  2.677322  2.265314  1.266991
   O (  6)  4.647269  3.565916  2.217473  1.267245  2.216849
   Li(  7)  5.751273  4.381545  3.471919  2.137966  1.887602  1.881273
   H (  8)  1.088496  2.177809  2.760504  4.026046  4.644472  4.863273
   H (  9)  1.088653  2.180597  2.835134  4.080473  4.655169  4.946070
   H ( 10)  2.146379  1.091159  2.083002  2.651082  2.612346  3.837062
   H ( 11)  2.149050  1.091427  2.087614  2.646747  2.591783  3.839398
   O ( 12)  1.806971  2.652163  4.006561  5.055406  5.168176  6.183969
   H ( 13)  2.239406  2.933010  4.321726  5.304612  5.326603  6.460382
             Li(  7)   H (  8)   H (  9)   H ( 10)   H ( 11)   O ( 12)
   H (  8)  6.122584
   H (  9)  6.162924  1.813484
   H ( 10)  4.366611  2.531169  3.082998
   H ( 11)  4.355608  3.087479  2.491749  1.775517
   O ( 12)  6.975260  2.247423  2.359532  2.781712  2.952466
   H ( 13)  7.157580  2.961998  2.443588  3.233086  2.877059  0.973945

 
 Requested basis set is def2-TZVPPD
 There are 140 shells and 378 basis functions
 A cutoff of  1.0D-14 yielded   9040 shell pairs
 There are     66266 function pairs (     83893 Cartesian)
 Smallest overlap matrix eigenvalue = 6.90E-06
 Guess MOs from SCF MO coefficient file

 -----------------------------------------------------------------------
  General SCF calculation program by
  Eric Jon Sundstrom, Paul Horn, Yuezhi Mao, Dmitri Zuev, Alec White,
  David Stuck, Shaama M.S., Shane Yost, Joonho Lee, David Small,
  Daniel Levine, Susi Lehtola, Hugh Burton, Evgeny Epifanovsky,
  Bang C. Huynh
 -----------------------------------------------------------------------
 Exchange:     0.1670 Hartree-Fock + 1.0000 wB97X-V + LR-HF
 Correlation:  1.0000 wB97X-V
 Using SG-3 standard quadrature grid
 Nonlocal Correlation:  VV10 with C = 0.0100 and b = 6.00 and scale = 1.00000
 Grid used for NLC:  SG-1 standard quadrature
 
 Citation of the SMD model:
 Marenich, A.V.; Cramer, C.J.; Truhlar, D.G.
 J. Phys. Chem. B 2009, 113, 6378-6396.
 iSolventCode=           0
 Solvent: other                                                           
 
 vradii
            1           2           3           4           5           6
    1   1.8500000   1.8500000   2.2940000   1.8500000   2.2940000   2.2940000
            7           8           9          10          11          12
    1   2.1476001   1.2000000   1.2000000   1.2000000   1.2000000   2.2940000
           13
    1   1.2000000
 using 32 threads for integral computing
 -------------------------------------------------------
 OpenMP Integral computing Module                
 Release: version 1.0, May 2013, Q-Chem Inc. Pittsburgh 
 -------------------------------------------------------
 using 32 threads for integral computing
 -------------------------------------------------------
 OpenMP Integral computing Module                
 Release: version 1.0, May 2013, Q-Chem Inc. Pittsburgh 
 -------------------------------------------------------
 -------------------------------------------------------
 OpenMP BLAS3 based DFT computing Module                
 Release: version 1.0, May 2013, Q-Chem Inc. Pittsburgh 
 -------------------------------------------------------
 -------------------------------------------------------
 OpenMP BLAS3 based DFT computing Module                
 Release: version 1.0, May 2013, Q-Chem Inc. Pittsburgh 
 -------------------------------------------------------
 -------------------------------------------------------
 OpenMP BLAS3 based DFT computing Module                
 Release: version 1.0, May 2013, Q-Chem Inc. Pittsburgh 
 -------------------------------------------------------
 A unrestricted SCF calculation will be
 performed using Roothaan-Hall, DIIS
 SCF converges when DIIS error is below 1.0e-08
 ---------------------------------------
  Cycle       Energy         DIIS error
 ---------------------------------------
    1    -418.3845364536      1.52e-04  Roothaan Step
 ---------------------------------------
  Cycle       Energy         DIIS error
 ---------------------------------------
    1    -425.8717043117      1.79e-04  
    2    -425.8760353979      1.92e-04  
    3    -425.8781918357      3.82e-05  
    4    -425.8785665110      1.76e-05  
    5    -425.8786713696      1.04e-05  
    6    -425.8787000090      4.00e-06  
    7    -425.8787068690      2.42e-06  
    8    -425.8787088795      1.22e-06  
    9    -425.8787100497      6.70e-07  
   10    -425.8787104315      4.18e-07  
   11    -425.8787105710      2.68e-07  
   12    -425.8787106286      2.06e-07  
   13    -425.8787106560      1.56e-07  
   14    -425.8787106790      1.10e-07  
   15    -425.8787106943      8.63e-08  
   16    -425.8787107080      6.53e-08  
   17    -425.8787107224      3.98e-08  
   18    -425.8787107274      2.12e-08  
   19    -425.8787107286      9.50e-09  Convergence criterion met
 ---------------------------------------
 SCF time:   CPU 3175.45s  wall 120.00s 
<S^2> =          0.755609837
(3)  G-ENP(liq) elect-nuc-pol free energy of system     -425.878710729 a.u.
(4)  G-CDS(liq) cavity-dispersion-solvent structure 
     free energy                                               -3.6001 kcal/mol
(6)  G-S(liq) free energy of system                     -425.884447858 a.u.
 SCF   energy in the final basis set =     -425.8787107286
 Total energy in the final basis set =     -425.8844478583
 
 --------------------------------------------------------------
 
                    Orbital Energies (a.u.)
 --------------------------------------------------------------
 
 Alpha MOs
 -- Occupied --
-19.2147 -19.1596 -19.1556 -19.1310 -10.3950 -10.2866 -10.2455  -2.0817
 -1.2158  -1.1146  -1.0717  -1.0111  -0.8536  -0.7083  -0.6490  -0.5822
 -0.5768  -0.5561  -0.5310  -0.4841  -0.4783  -0.4410  -0.4267  -0.4086
 -0.3869  -0.3797  -0.3630  -0.3568  -0.3282  -0.1110
 -- Virtual --
  0.0364   0.0528   0.0541   0.0581   0.0910   0.1062   0.1113   0.1185
  0.1255   0.1369   0.1383   0.1409   0.1475   0.1534   0.1544   0.1571
  0.1774   0.1804   0.1873   0.1888   0.2049   0.2156   0.2228   0.2301
  0.2377   0.2565   0.2701   0.2746   0.2783   0.2894   0.2926   0.3042
  0.3132   0.3276   0.3315   0.3350   0.3435   0.3483   0.3580   0.3648
  0.3694   0.3829   0.3854   0.3934   0.3990   0.4039   0.4167   0.4214
  0.4227   0.4258   0.4271   0.4390   0.4465   0.4508   0.4537   0.4696
  0.4772   0.4859   0.4896   0.4940   0.5023   0.5091   0.5188   0.5217
  0.5283   0.5357   0.5467   0.5511   0.5617   0.5672   0.5833   0.5920
  0.6077   0.6124   0.6143   0.6214   0.6299   0.6327   0.6505   0.6630
  0.6687   0.6795   0.6907   0.6951   0.6976   0.7129   0.7211   0.7351
  0.7420   0.7591   0.7742   0.7780   0.7814   0.7854   0.8000   0.8113
  0.8183   0.8240   0.8379   0.8485   0.8504   0.8659   0.8728   0.8820
  0.8971   0.9183   0.9227   0.9356   0.9365   0.9602   0.9858   0.9991
  1.0155   1.0287   1.0340   1.0399   1.0504   1.0602   1.0680   1.0771
  1.1181   1.1373   1.1412   1.1598   1.1886   1.1908   1.2225   1.2275
  1.2330   1.2474   1.2773   1.2887   1.3015   1.3353   1.3401   1.3482
  1.3532   1.3642   1.3872   1.3937   1.4067   1.4323   1.4611   1.4741
  1.4845   1.4978   1.5357   1.5647   1.5781   1.5985   1.6402   1.6583
  1.7052   1.7367   1.7510   1.7541   1.7904   1.8205   1.8299   1.8783
  1.9120   1.9316   1.9367   1.9549   1.9831   2.0140   2.0166   2.0413
  2.0566   2.0780   2.1289   2.1468   2.1594   2.1887   2.1910   2.2742
  2.3036   2.3072   2.3518   2.3757   2.3942   2.3983   2.4620   2.4666
  2.4781   2.5149   2.5678   2.5862   2.6188   2.7295   2.7494   2.8130
  2.8795   2.9042   2.9341   2.9535   2.9623   2.9723   2.9847   2.9994
  3.0228   3.0379   3.0865   3.1098   3.1411   3.1541   3.1962   3.2083
  3.2525   3.2552   3.2959   3.3186   3.3235   3.3432   3.3618   3.3710
  3.3780   3.3968   3.4213   3.4446   3.4632   3.4744   3.4986   3.5142
  3.5233   3.5616   3.5729   3.5920   3.5963   3.6103   3.6356   3.6392
  3.6467   3.6583   3.6743   3.6945   3.7198   3.7527   3.8053   3.8332
  3.8755   3.9141   3.9730   3.9843   4.0194   4.0336   4.0638   4.0906
  4.1052   4.1391   4.1853   4.2084   4.2143   4.2681   4.2970   4.3223
  4.3399   4.3857   4.4117   4.4283   4.4721   4.4958   4.5228   4.5239
  4.5834   4.6374   4.7351   4.7420   4.7941   4.8307   4.8434   4.8949
  4.9549   5.0195   5.0494   5.0771   5.1578   5.1884   5.2685   5.2828
  5.2930   5.2987   5.3217   5.3579   5.3789   5.3945   5.4358   5.5003
  5.5062   5.5448   5.5702   5.6050   5.6201   5.6311   5.6598   5.6767
  5.6957   5.7068   5.7339   5.7478   5.8109   5.8334   5.8542   5.9542
  5.9823   6.0825   6.1028   6.1341   6.2744   6.2822   6.2862   6.3299
  6.3472   6.4560   6.5452   6.6242   6.6579   6.6681   6.7146   6.7325
  6.7376   6.8161   6.8346   6.8598   6.8996   6.9320   6.9447   6.9615
  6.9951   7.1042   7.1576   7.1718   7.2930   7.4147   7.4466   7.4817
  7.5226   7.6552   7.7317   7.7493  14.8433  23.4690  23.6590  23.9174
 44.1124  44.2012  44.3663  44.6423
 
 Beta MOs
 -- Occupied --
-19.2133 -19.1596 -19.1555 -19.1260 -10.3948 -10.2866 -10.2401  -2.0817
 -1.2146  -1.1127  -1.0715  -0.9982  -0.8462  -0.6986  -0.6455  -0.5806
 -0.5760  -0.5550  -0.5280  -0.4800  -0.4727  -0.4355  -0.4230  -0.4062
 -0.3789  -0.3649  -0.3623  -0.3559  -0.3223
 -- Virtual --
  0.0378   0.0538   0.0548   0.0611   0.0840   0.1013   0.1172   0.1183
  0.1288   0.1415   0.1424   0.1431   0.1498   0.1563   0.1575   0.1601
  0.1667   0.1819   0.1868   0.1892   0.1937   0.2075   0.2185   0.2275
  0.2337   0.2413   0.2609   0.2759   0.2779   0.2821   0.2930   0.2952
  0.3059   0.3156   0.3300   0.3342   0.3370   0.3456   0.3528   0.3609
  0.3676   0.3710   0.3842   0.3877   0.3992   0.4018   0.4066   0.4182
  0.4240   0.4248   0.4286   0.4295   0.4398   0.4486   0.4506   0.4553
  0.4698   0.4782   0.4876   0.4911   0.4946   0.5029   0.5117   0.5209
  0.5223   0.5295   0.5366   0.5472   0.5511   0.5625   0.5683   0.5840
  0.5932   0.6087   0.6132   0.6168   0.6222   0.6296   0.6330   0.6507
  0.6632   0.6691   0.6806   0.6910   0.6957   0.6984   0.7128   0.7212
  0.7365   0.7432   0.7597   0.7744   0.7783   0.7813   0.7861   0.8012
  0.8127   0.8193   0.8250   0.8414   0.8490   0.8509   0.8671   0.8735
  0.8831   0.8977   0.9187   0.9232   0.9362   0.9365   0.9614   0.9864
  1.0006   1.0166   1.0301   1.0340   1.0418   1.0509   1.0607   1.0690
  1.0778   1.1200   1.1378   1.1426   1.1598   1.1907   1.1924   1.2232
  1.2286   1.2336   1.2486   1.2778   1.2896   1.3028   1.3365   1.3410
  1.3492   1.3535   1.3656   1.3884   1.3953   1.4073   1.4340   1.4626
  1.4765   1.4856   1.4991   1.5371   1.5665   1.5796   1.6004   1.6412
  1.6603   1.7081   1.7385   1.7521   1.7555   1.7924   1.8213   1.8311
  1.8787   1.9136   1.9327   1.9384   1.9598   1.9864   2.0150   2.0183
  2.0497   2.0577   2.0786   2.1326   2.1486   2.1602   2.1908   2.1935
  2.2745   2.3050   2.3093   2.3525   2.3802   2.3972   2.3996   2.4625
  2.4676   2.4784   2.5191   2.5692   2.5912   2.6222   2.7324   2.7503
[...]
 Li        -0.017  0.000  0.001    0.019 -0.191  0.268    0.007 -0.053  0.211
 H         -0.114  0.055  0.163    0.117 -0.018 -0.166    0.159 -0.077  0.389
 H         -0.014 -0.021 -0.201   -0.098  0.185 -0.007   -0.213 -0.374  0.208
 H          0.008 -0.111 -0.019    0.079  0.249 -0.239    0.124  0.172 -0.192
 H          0.031 -0.049 -0.068   -0.077  0.124 -0.308   -0.235  0.015 -0.261
 O         -0.217  0.424  0.366   -0.026 -0.200  0.223    0.128  0.067 -0.003
 H          0.038 -0.068  0.118    0.188 -0.013  0.482   -0.362 -0.134 -0.275
 TransDip  -3.344  6.855  2.138   -0.005  0.045 -0.001   -0.045 -0.094  0.072

 Mode:                 4                      5                      6
 Frequency:       106.41                 126.12                 152.60
 Force Cnst:      0.0354                 0.0455                 0.0190
 Red. Mass:       5.3075                 4.8551                 1.3852
 IR Active:          YES                    YES                    YES
 IR Intens:       10.945                 89.383                 18.804
 Raman Active:       YES                    YES                    YES
               X      Y      Z        X      Y      Z        X      Y      Z
 C         -0.088  0.017 -0.170    0.019 -0.036  0.066   -0.001  0.006  0.041
 C         -0.072 -0.180  0.029    0.028 -0.106  0.233   -0.002 -0.019 -0.037
 O         -0.061 -0.103 -0.052    0.014  0.026  0.011   -0.010 -0.077  0.017
 C         -0.052 -0.001 -0.001    0.005  0.070 -0.116   -0.011 -0.012 -0.020
 O         -0.163  0.105 -0.039    0.022  0.112 -0.225   -0.052  0.012 -0.002
 O          0.068  0.007  0.093   -0.020  0.035 -0.080    0.036  0.033 -0.053
 Li        -0.030  0.212  0.119    0.040 -0.304  0.416    0.005  0.039  0.119
 H         -0.311 -0.004 -0.367   -0.091 -0.027  0.002    0.007  0.054  0.128
 H          0.006  0.332 -0.165    0.152  0.002  0.004   -0.040 -0.061  0.051
 H         -0.221 -0.381  0.091   -0.057 -0.367  0.272    0.045  0.054 -0.058
 H          0.079 -0.116  0.241    0.124 -0.005  0.477   -0.009 -0.069 -0.128
 O          0.362  0.034  0.065   -0.067  0.043 -0.063   -0.022  0.022 -0.017
 H         -0.086 -0.019  0.001   -0.202 -0.038 -0.174    0.893  0.225  0.243
 TransDip  -0.105  0.004 -0.011    0.057 -0.174  0.241    0.010  0.025  0.136

 Mode:                 7                      8                      9
 Frequency:       187.74                 245.85                 347.84
 Force Cnst:      0.0873                 0.1332                 0.3505
 Red. Mass:       4.2061                 3.7403                 4.9169
 IR Active:          YES                    YES                    YES
 IR Intens:        8.229                  6.194                 33.243
 Raman Active:       YES                    YES                    YES
               X      Y      Z        X      Y      Z        X      Y      Z
 C         -0.012  0.055 -0.132   -0.106 -0.194 -0.094    0.290 -0.132 -0.087
 C         -0.015  0.088 -0.128   -0.123  0.010  0.028    0.221  0.094  0.051
 O          0.019 -0.145  0.304    0.022  0.132  0.073   -0.046  0.087  0.045
 C         -0.002  0.003  0.023    0.013  0.108  0.060   -0.107 -0.009  0.001
 O          0.009  0.016 -0.020    0.111  0.049  0.019   -0.121  0.005  0.012
 O         -0.035  0.103 -0.169   -0.112  0.055  0.038   -0.188 -0.029 -0.001
 Li         0.003 -0.122  0.153   -0.029 -0.242 -0.136   -0.231  0.209  0.135
 H          0.019  0.018 -0.170   -0.084 -0.171 -0.044    0.410 -0.176 -0.079
 H         -0.035  0.094 -0.113   -0.097 -0.226 -0.102    0.379 -0.274 -0.153
 H         -0.045  0.454 -0.116   -0.227  0.065  0.072    0.218  0.087  0.053
 H         -0.034 -0.077 -0.432   -0.217  0.076  0.076    0.220  0.099  0.055
 O          0.065 -0.054  0.050    0.148 -0.060 -0.069    0.066 -0.095 -0.074
 H         -0.516 -0.127 -0.034    0.716  0.040  0.059    0.169 -0.124 -0.105
 TransDip  -0.047 -0.035  0.071   -0.019 -0.064 -0.044    0.034  0.174  0.051

 Mode:                10                     11                     12
 Frequency:       399.11                 556.27                 584.20
 Force Cnst:      0.7290                 1.2984                 1.6230
 Red. Mass:       7.7673                 7.1215                 8.0714
 IR Active:          YES                    YES                    YES
 IR Intens:       58.650                293.453                365.781
 Raman Active:       YES                    YES                    YES
               X      Y      Z        X      Y      Z        X      Y      Z
 C         -0.173 -0.039 -0.016    0.063 -0.049 -0.045   -0.045 -0.039 -0.033
 C         -0.158  0.091  0.065    0.028  0.081  0.047   -0.154  0.400  0.246
 O          0.034  0.128  0.074   -0.176  0.038  0.033    0.014  0.096  0.054
 C          0.035 -0.114 -0.066   -0.116 -0.023 -0.005   -0.029 -0.160 -0.089
 O          0.245 -0.199 -0.132   -0.183 -0.026 -0.002   -0.209 -0.093 -0.039
 O         -0.124 -0.161 -0.084   -0.043  0.026  0.018    0.398 -0.078 -0.073
 Li         0.195  0.591  0.323    0.876 -0.072 -0.104   -0.193 -0.115 -0.052
 H         -0.169 -0.037 -0.011    0.149 -0.085 -0.044    0.085 -0.068  0.004
 H         -0.178 -0.020 -0.010    0.131 -0.175 -0.100    0.018 -0.146 -0.079
 H         -0.240  0.119  0.098    0.010  0.078  0.055   -0.177  0.278  0.241
 H         -0.228  0.134  0.092    0.041  0.083  0.057   -0.128  0.357  0.214
 O          0.028  0.006  0.002    0.013 -0.004  0.002    0.060 -0.045 -0.031
 H          0.090  0.019  0.018    0.052 -0.027 -0.024    0.084 -0.098 -0.091
 TransDip  -0.017  0.210  0.125    0.538 -0.064 -0.089   -0.461  0.349  0.202

 Mode:                13                     14                     15
 Frequency:       674.14                 753.66                 810.68
 Force Cnst:      0.2916                 3.3159                 0.4689
 Red. Mass:       1.0889                 9.9083                 1.2110
 IR Active:          YES                    YES                    YES
 IR Intens:        2.083                 90.642                 98.092
 Raman Active:       YES                    YES                    YES
               X      Y      Z        X      Y      Z        X      Y      Z
 C          0.012 -0.050  0.061   -0.102 -0.005  0.015    0.004 -0.057  0.013
 C          0.001  0.004  0.007    0.042 -0.087 -0.049    0.027 -0.052  0.028
 O          0.004  0.005  0.002    0.386  0.166  0.068   -0.026  0.040  0.016
 C         -0.001 -0.003  0.000    0.235 -0.072 -0.059   -0.015  0.012 -0.033
 O         -0.009  0.001  0.002   -0.340  0.226  0.153    0.000 -0.034 -0.008
 O         -0.001 -0.003 -0.002   -0.161 -0.314 -0.167    0.033  0.012  0.017
 Li         0.007 -0.001 -0.001    0.114 -0.022 -0.020   -0.014 -0.001 -0.001
 H         -0.089 -0.309 -0.447   -0.262  0.113  0.097   -0.240 -0.031 -0.121
 H          0.024  0.617  0.168   -0.216  0.121  0.093    0.247  0.057 -0.093
 H          0.195  0.126 -0.074   -0.095  0.075  0.010    0.238  0.215 -0.061
 H         -0.205  0.010 -0.118   -0.137  0.033  0.040   -0.284 -0.053 -0.181
 O         -0.012  0.019 -0.003   -0.012  0.016 -0.009    0.007  0.013 -0.037
 H          0.172 -0.201 -0.306   -0.154  0.254  0.299   -0.275  0.470  0.565
 TransDip   0.005 -0.012 -0.044    0.263 -0.132 -0.081    0.197 -0.147 -0.201

 Mode:                16                     17                     18
 Frequency:       846.60                 856.66                 873.26
 Force Cnst:      2.8594                 2.3293                 0.5535
 Red. Mass:       6.7711                 5.3871                 1.2319
 IR Active:          YES                    YES                    YES
 IR Intens:      125.643               1671.266                101.081
 Raman Active:       YES                    YES                    YES
               X      Y      Z        X      Y      Z        X      Y      Z
 C         -0.008 -0.051  0.010   -0.118  0.010 -0.016   -0.041  0.052 -0.004
 C          0.056 -0.050 -0.096    0.185 -0.235 -0.199    0.009 -0.040  0.043
 O         -0.037  0.147 -0.051   -0.058  0.251  0.199    0.001  0.024 -0.031
 C          0.025 -0.319  0.531   -0.016  0.034 -0.148    0.019 -0.038  0.062
 O         -0.028  0.037 -0.173   -0.061 -0.136 -0.028   -0.004  0.018 -0.013
 O          0.041  0.104 -0.136    0.143  0.017  0.044   -0.001 -0.001 -0.022
 Li        -0.019 -0.016  0.020   -0.061 -0.007 -0.006   -0.003 -0.001  0.003
 H          0.203 -0.209 -0.098    0.223 -0.299 -0.259   -0.296  0.141 -0.036
 H         -0.274  0.143  0.181   -0.155 -0.333 -0.068    0.475 -0.374 -0.351
 H         -0.117 -0.199 -0.017   -0.227 -0.120 -0.008    0.223  0.218 -0.050
 H          0.101  0.100  0.183    0.229 -0.036  0.147   -0.216 -0.094 -0.201
 O         -0.009  0.027 -0.018   -0.052  0.077  0.091   -0.007  0.003  0.049
 H         -0.128  0.273  0.294    0.189 -0.203 -0.312    0.147 -0.269 -0.307
 TransDip   0.205 -0.294  0.020    0.766 -0.944 -0.486    0.139 -0.288  0.039

 Mode:                19                     20                     21
 Frequency:       928.88                1079.34                1106.50
 Force Cnst:      0.6518                 7.3778                 2.2697
 Red. Mass:       1.2822                10.7488                 3.1464
 IR Active:          YES                    YES                    YES
 IR Intens:      548.525                327.209                277.601
 Raman Active:       YES                    YES                    YES
               X      Y      Z        X      Y      Z        X      Y      Z
 C          0.065 -0.012 -0.035   -0.023  0.087  0.076   -0.255 -0.112 -0.064
 C          0.008 -0.044 -0.001   -0.106  0.016 -0.002    0.275  0.129  0.067
 O          0.007  0.062  0.025    0.525 -0.041 -0.054    0.020 -0.071 -0.046
 C         -0.039 -0.004  0.004   -0.214  0.021  0.028   -0.003 -0.006 -0.002
 O         -0.020 -0.041 -0.023   -0.194 -0.320 -0.169    0.000 -0.012 -0.007
 O          0.015  0.029  0.015   -0.125  0.311  0.186   -0.028  0.043  0.026
 Li         0.004 -0.002 -0.001    0.044  0.001 -0.003   -0.001 -0.000 -0.000
 H         -0.413  0.536  0.507    0.207 -0.232 -0.272   -0.434  0.023  0.040
 H         -0.179  0.378  0.167    0.217 -0.239 -0.111   -0.426 -0.016  0.032
 H          0.037  0.054 -0.011   -0.014 -0.174 -0.054    0.445  0.130 -0.000
 H         -0.072 -0.045 -0.060   -0.034 -0.048 -0.039    0.468  0.042  0.028
 O          0.007 -0.052 -0.021    0.010 -0.003 -0.011   -0.009  0.019  0.020
 H          0.044 -0.158 -0.141   -0.028  0.040  0.047    0.003  0.008 -0.007
 TransDip  -0.330  0.608  0.290   -0.469  0.294  0.170    0.296 -0.415 -0.157

 Mode:                22                     23                     24
 Frequency:      1189.84                1275.08                1309.86
 Force Cnst:      1.1838                 1.0652                 1.3932
 Red. Mass:       1.4192                 1.1120                 1.3782
 IR Active:          YES                    YES                    YES
 IR Intens:        2.137                 35.913               1288.285
 Raman Active:       YES                    YES                    YES
               X      Y      Z        X      Y      Z        X      Y      Z
 C         -0.003  0.052 -0.075   -0.012  0.048 -0.067   -0.022 -0.004  0.018
 C          0.002 -0.084  0.137   -0.004 -0.021  0.027   -0.093  0.011  0.006
 O          0.003  0.023 -0.041    0.002 -0.007  0.028    0.019  0.058  0.029
 C          0.001 -0.001  0.002   -0.008  0.001  0.001   -0.101  0.008  0.012
 O         -0.003 -0.002 -0.003    0.002  0.002  0.002    0.025  0.030  0.015
 O         -0.001  0.002  0.002    0.003 -0.004 -0.003    0.028 -0.042 -0.026
 Li        -0.000  0.000  0.000    0.001  0.000 -0.000    0.012 -0.000 -0.001
 H          0.455 -0.098  0.018    0.267  0.006  0.067    0.035 -0.032  0.007
 H         -0.415 -0.012  0.133   -0.253 -0.086  0.034    0.087  0.039 -0.027
 H         -0.028  0.491  0.153    0.607 -0.305 -0.233    0.467 -0.321 -0.227
 H          0.001 -0.385 -0.377   -0.480  0.250  0.180    0.601 -0.398 -0.253
 O         -0.000  0.001 -0.000    0.001 -0.003 -0.000    0.010 -0.013 -0.015
 H          0.004 -0.005 -0.011    0.014 -0.017 -0.014   -0.016  0.006  0.023
 TransDip   0.014 -0.041  0.017   -0.102  0.163  0.000   -0.830  0.726  0.325

 Mode:                25                     26                     27
 Frequency:      1448.73                1467.93                1488.66
 Force Cnst:      2.4601                 1.9286                 1.6576
 Red. Mass:       1.9894                 1.5191                 1.2695
 IR Active:          YES                    YES                    YES
 IR Intens:      576.759                126.057                184.228
 Raman Active:       YES                    YES                    YES
               X      Y      Z        X      Y      Z        X      Y      Z
 C         -0.070 -0.037 -0.019    0.104  0.026  0.013   -0.015  0.002  0.003
 C         -0.064 -0.001  0.000   -0.092 -0.007  0.003   -0.034 -0.064 -0.035
 O         -0.052  0.004  0.006   -0.035  0.008  0.006    0.030 -0.014 -0.011
 C          0.234 -0.009 -0.022    0.135 -0.005 -0.013   -0.108  0.005  0.011
 O         -0.060 -0.058 -0.028   -0.034 -0.033 -0.016    0.027  0.024  0.012
 O         -0.043  0.058  0.036   -0.024  0.032  0.020    0.019 -0.025 -0.016
 Li        -0.019  0.001  0.002   -0.011  0.001  0.001    0.008 -0.000 -0.001
 H          0.446  0.013  0.406   -0.436  0.008 -0.388    0.106 -0.001  0.080
 H          0.429  0.407 -0.184   -0.398 -0.383  0.192    0.099  0.079 -0.040
 H          0.245  0.090 -0.117    0.275  0.201 -0.138    0.162  0.668 -0.100
 H          0.271 -0.045  0.113    0.305 -0.020  0.210    0.218  0.230  0.600
 O          0.001  0.002  0.002    0.002 -0.005 -0.006    0.001 -0.003 -0.002
 H          0.002  0.000 -0.003   -0.003 -0.001  0.009    0.000  0.001  0.003
 TransDip   0.727 -0.212 -0.134    0.319  0.166 -0.013   -0.328  0.238  0.156

 Mode:                28                     29                     30
 Frequency:      1590.61                3082.92                3116.45
 Force Cnst:     19.1369                 5.9124                 6.0337
 Red. Mass:      12.8379                 1.0558                 1.0544
 IR Active:          YES                    YES                    YES
 IR Intens:      838.982                496.975                293.279
 Raman Active:       YES                    YES                    YES
               X      Y      Z        X      Y      Z        X      Y      Z
 C         -0.006 -0.010 -0.006    0.002  0.006  0.004   -0.048 -0.034 -0.027
 C          0.036  0.015  0.006   -0.040 -0.046 -0.024   -0.001 -0.006  0.002
 O         -0.026 -0.064 -0.035    0.001 -0.001 -0.001    0.001 -0.000 -0.000
 C          0.072  0.760  0.429   -0.002 -0.001 -0.001   -0.000 -0.000 -0.000
 O         -0.143 -0.257 -0.136   -0.000  0.001  0.000    0.000  0.000  0.000
 O          0.094 -0.278 -0.165    0.000  0.000  0.000    0.000 -0.000  0.000
 Li         0.005  0.046  0.026    0.000 -0.000 -0.000    0.000 -0.000 -0.000
 H         -0.030  0.003 -0.003   -0.016 -0.041  0.023    0.225  0.528 -0.335
 H         -0.025 -0.006  0.005   -0.018  0.005 -0.037    0.330 -0.127  0.650
 H          0.010  0.012  0.030    0.261 -0.014  0.653    0.004 -0.002  0.014
 H          0.012  0.033 -0.005    0.204  0.577 -0.349    0.022  0.065 -0.039
 O         -0.001  0.002  0.002    0.002 -0.001 -0.004   -0.000  0.000  0.001
 H          0.001  0.002 -0.001    0.000 -0.023  0.017    0.000  0.005 -0.005
 TransDip   0.087  0.800  0.462   -0.346  0.604  0.162    0.042 -0.497 -0.227

 Mode:                31                     32                     33
 Frequency:      3141.45                3190.29                3558.50
 Force Cnst:      6.4535                 6.6744                 7.9900
 Red. Mass:       1.1099                 1.1130                 1.0709
 IR Active:          YES                    YES                    YES
 IR Intens:        7.271                 92.639               4655.656
 Raman Active:       YES                    YES                    YES
               X      Y      Z        X      Y      Z        X      Y      Z
 C         -0.002 -0.015  0.016   -0.004  0.056 -0.077    0.008 -0.007 -0.010
 C         -0.005  0.047 -0.081   -0.001  0.012 -0.019   -0.007 -0.000 -0.000
 O         -0.000 -0.000  0.000   -0.000 -0.000  0.000    0.003 -0.001 -0.001
 C          0.000 -0.000  0.000    0.000 -0.000  0.000   -0.002 -0.000  0.000
 O          0.000 -0.000  0.000   -0.000 -0.000  0.000    0.001  0.000  0.000
 O         -0.000  0.000 -0.000   -0.000  0.000 -0.000    0.001 -0.000 -0.000
 Li         0.000  0.000 -0.000    0.000 -0.000 -0.000   -0.000 -0.000  0.000
 H          0.069  0.159 -0.096   -0.255 -0.572  0.347   -0.009  0.003  0.012
 H         -0.052  0.015 -0.102    0.300 -0.097  0.573   -0.003  0.000 -0.009
 H          0.271  0.000  0.634    0.061 -0.002  0.140    0.012 -0.004  0.018
 H         -0.213 -0.558  0.325   -0.052 -0.133  0.080    0.008  0.012 -0.011
 O          0.000  0.000  0.000    0.000 -0.000 -0.000   -0.004 -0.044  0.046
 H          0.001 -0.001  0.001    0.000 -0.003 -0.000   -0.003  0.795 -0.602
 TransDip  -0.027  0.042 -0.070   -0.050  0.235 -0.193    0.801 -2.006 -0.332

 STANDARD THERMODYNAMIC QUANTITIES AT   298.15 K  AND     1.00 ATM

   This Molecule has  1 Imaginary Frequencies
   Zero point vibrational energy:       52.354 kcal/mol

   Atom    1 Element C  Has Mass   12.00000
   Atom    2 Element C  Has Mass   12.00000
   Atom    3 Element O  Has Mass   15.99491
   Atom    4 Element C  Has Mass   12.00000
   Atom    5 Element O  Has Mass   15.99491
   Atom    6 Element O  Has Mass   15.99491
   Atom    7 Element Li Has Mass    7.01600
   Atom    8 Element H  Has Mass    1.00783
   Atom    9 Element H  Has Mass    1.00783
   Atom   10 Element H  Has Mass    1.00783
   Atom   11 Element H  Has Mass    1.00783
   Atom   12 Element O  Has Mass   15.99491
   Atom   13 Element H  Has Mass    1.00783
   Molecular Mass:   112.034790 amu
   Principal axes and moments of inertia in amu*Bohr^2:
                             1           2           3
    Eigenvalues --      228.30476  1945.71547  2142.96501
          X               0.86188     0.50234     0.06936
          Y              -0.39582     0.75191    -0.52721
          Z              -0.31699     0.42694     0.84690
   Rotational Symmetry Number is   1
   The Molecule is an Asymmetric Top
   Translational Enthalpy:        0.889 kcal/mol
   Rotational Enthalpy:           0.889 kcal/mol
   Vibrational Enthalpy:         56.374 kcal/mol
   gas constant (RT):             0.592 kcal/mol
   Translational Entropy:        40.057  cal/mol.K
   Rotational Entropy:           28.344  cal/mol.K
   Vibrational Entropy:          26.565  cal/mol.K

   Total Enthalpy:               58.743 kcal/mol
   Total Entropy:                94.966  cal/mol.K
Archival summary:
1\1\n0037.lr6\FREQ\ProcedureUnspecified\BasisUnspecified\43i15(1-,2)\ewcspott\FriJun1214:15:432020FriJun1214:15:432020\0\\#,FREQ,ProcedureUnspecified,BasisUnspecified,\\-1,2\O\C,1,1.33458\O,2,1.26699,1,121.07\O,2,1.26724,1,116.897,3,-179.9,0\C,1,1.4886,2,117.098,3,-0.454168,0\H,5,1.09116,1,106.679,2,-58.913,0\H,5,1.09143,1,107.018,2,57.5049,0\C,5,1.484,1,109.715,2,179.542,0\H,8,1.08769,5,114.867,1,62.2412,0\H,8,1.0888,5,115.03,1,-71.31,0\O,8,1.80768,5,106.949,1,170.728,0\H,11,0.973945,8,103.179,5,81.9948,0\Li,4,1.88127,2,83.0833,1,179.915,0\\\@

 Total job time:  11137.09s(wall), 288346.72s(cpu) 
 Fri Jun 12 14:15:43 2020

        *************************************************************
        *                                                           *
        *  Thank you very much for using Q-Chem.  Have a nice day.  *
        *                                                           *
        *************************************************************


