
Running Job 1 of 1 mol.qin
qchem mol.qin_19308.0 /tmp/scratch/ 0
/global/common/cori_cle7/software/qchem/5.2.2/exe/qcprog.exe_s mol.qin_19308.0 /tmp/scratch/
                  Welcome to Q-Chem
     A Quantum Leap Into The Future Of Chemistry


 Q-Chem 5.2, Q-Chem, Inc., Pleasanton, CA (2019)

 License issued to: National Energy Research Scientific Computing Center

 Yihan Shao,  Zhengting Gan,  E. Epifanovsky,  A. T. B. Gilbert,  M. Wormit,  
 J. Kussmann,  A. W. Lange,  A. Behn,  Jia Deng,  Xintian Feng,  D. Ghosh,  
 M. Goldey,  P. R. Horn,  L. D. Jacobson,  I. Kaliman,  T. Kus,  A. Landau,  
 Jie Liu,  E. I. Proynov,  R. M. Richard,  R. P. Steele,  E. J. Sundstrom,  
 H. L. Woodcock III,  P. M. Zimmerman,  D. Zuev,  B. Alam,  B. Albrecht,  
 E. Alguire,  S. A. Baeppler,  D. Barton,  Z. Benda,  Y. A. Bernard,  
 E. J. Berquist,  K. B. Bravaya,  H. Burton,  K. Carter-Fenk,  D. Casanova,  
 Chun-Min Chang,  Yunqing Chen,  A. Chien,  K. D. Closser,  M. P. Coons,  
 S. Coriani,  S. Dasgupta,  A. L. Dempwolff,  M. Diedenhofen,  Hainam Do,  
 R. G. Edgar,  Po-Tung Fang,  S. Faraji,  S. Fatehi,  Qingguo Feng,  
 J. Fosso-Tande,  J. Gayvert,  Qinghui Ge,  A. Ghysels,  G. Gidofalvi,  
 J. Gomes,  J. Gonthier,  A. Gunina,  D. Hait,  M. W. D. Hanson-Heine,  
 P. H. P. Harbach,  A. W. Hauser,  M. F. Herbst,  J. E. Herr,  
 E. G. Hohenstein,  Z. C. Holden,  Kerwin Hui,  B. C. Huynh,  T.-C. Jagau,  
 Hyunjun Ji,  B. Kaduk,  K. Khistyaev,  Jaehoon Kim,  P. Klunzinger,  K. Koh,  
 D. Kosenkov,  L. Koulias,  T. Kowalczyk,  C. M. Krauter,  A. Kunitsa,  
 Ka Un Lao,  A. Laurent,  K. V. Lawler,  Joonho Lee,  D. Lefrancois,  
 S. Lehtola,  D. S. Levine,  Yi-Pei Li,  You-Sheng Lin,  Fenglai Liu,  
 Kuan-Yu Liu,  E. Livshits,  M. Loipersberger,  A. Luenser,  P. Manohar,  
 E. Mansoor,  S. F. Manzer,  Shan-Ping Mao,  Yuezhi Mao,  N. Mardirossian,  
 A. V. Marenich,  T. Markovich,  L. A. Martinez-Martinez,  S. A. Maurer,  
 N. J. Mayhall,  S. C. McKenzie,  J.-M. Mewes,  P. Morgante,  A. F. Morrison,  
 J. W. Mullinax,  K. Nanda,  T. S. Nguyen-Beck,  R. Olivares-Amaya,  
 J. A. Parkhill,  S. K. Paul,  Zheng Pei,  T. M. Perrine,  F. Plasser,  
 P. Pokhilko,  S. Prager,  A. Prociuk,  E. Ramos,  B. Rana,  D. R. Rehn,  
 F. Rob,  M. Scheurer,  M. Schneider,  N. Sergueev,  S. M. Sharada,  
 S. Sharma,  D. W. Small,  T. Stauch,  C. J. Stein,  T. Stein,  Yu-Chuan Su,  
 S. P. Veccham,  A. J. W. Thom,  A. Tkatchenko,  T. Tsuchimochi,  
 N. M. Tubman,  L. Vogt,  M. L. Vidal,  O. Vydrov,  M. A. Watson,  J. Wenzel,  
 M. de Wergifosse,  T. A. Wesolowski,  A. White,  J. Witte,  A. Yamada,  
 Jun Yang,  K. Yao,  S. Yeganeh,  S. R. Yost,  Zhi-Qiang You,  A. Zech,  
 Igor Ying Zhang,  Xing Zhang,  Yan Zhao,  Ying Zhu,  B. R. Brooks,  
 G. K. L. Chan,  C. J. Cramer,  M. S. Gordon,  W. J. Hehre,  A. Klamt,  
 M. W. Schmidt,  C. D. Sherrill,  D. G. Truhlar,  A. Aspuru-Guzik,  R. Baer,  
 A. T. Bell,  N. A. Besley,  Jeng-Da Chai,  A. E. DePrince, III,  
 R. A. DiStasio Jr.,  A. Dreuw,  B. D. Dunietz,  T. R. Furlani,  
 Chao-Ping Hsu,  Yousung Jung,  Jing Kong,  D. S. Lambrecht,  WanZhen Liang,  
 C. Ochsenfeld,  V. A. Rassolov,  L. V. Slipchenko,  J. E. Subotnik,  
 T. Van Voorhis,  J. M. Herbert,  A. I. Krylov,  P. M. W. Gill,  M. Head-Gordon

 Contributors to earlier versions of Q-Chem not listed above: 
 R. D. Adamson,  B. Austin,  J. Baker,  G. J. O. Beran,  K. Brandhorst,  
 S. T. Brown,  E. F. C. Byrd,  A. K. Chakraborty,  C.-L. Cheng,  
 Siu Hung Chien,  D. M. Chipman,  D. L. Crittenden,  H. Dachsel,  
 R. J. Doerksen,  A. D. Dutoi,  L. Fusti-Molnar,  W. A. Goddard III,  
 A. Golubeva-Zadorozhnaya,  S. R. Gwaltney,  G. Hawkins,  A. Heyden,  
 S. Hirata,  G. Kedziora,  F. J. Keil,  C. Kelley,  Jihan Kim,  R. A. King,  
 R. Z. Khaliullin,  P. P. Korambath,  W. Kurlancheek,  A. M. Lee,  M. S. Lee,  
 S. V. Levchenko,  Ching Yeh Lin,  D. Liotard,  R. C. Lochan,  I. Lotan,  
 P. E. Maslen,  N. Nair,  D. P. O'Neill,  D. Neuhauser,  E. Neuscamman,  
 C. M. Oana,  R. Olson,  B. Peters,  R. Peverati,  P. A. Pieniazek,  
 Y. M. Rhee,  J. Ritchie,  M. A. Rohrdanz,  E. Rosta,  N. J. Russ,  
 H. F. Schaefer III,  N. E. Schultz,  N. Shenvi,  A. C. Simmonett,  A. Sodt,  
 D. Stuck,  K. S. Thanthiriwatte,  V. Vanovschi,  Tao Wang,  A. Warshel,  
 C. F. Williams,  Q. Wu,  X. Xu,  W. Zhang

 Please cite Q-Chem as follows:
 Y. Shao et al., Mol. Phys. 113, 184-215 (2015)
 DOI: 10.1080/00268976.2014.952696

 Q-Chem 5.2.2 for Intel X86 EM64T Linux

 Parts of Q-Chem use Armadillo 8.300.2 (Tropical Shenanigans).
 http://arma.sourceforge.net/

 Q-Chem begins on Mon Mar 23 18:51:26 2020  

Host: x86_64-conda_cos6-linux-gnu
0

     Scratch files written to /tmp/scratch//
 Nov2519 |scratch|qcdevops|jenkins|workspace|build_RNUM 7035   
Processing $rem in /global/common/cori_cle7/software/qchem/5.2.2/config/preferences:
	 MEM_TOTAL  96000 
NAlpha2: 50
NElect   49
Mult     2
Symmetry turned off for PCM/SM12/SMD calculation

Checking the input file for inconsistencies... 	...done.

--------------------------------------------------------------
User input:
--------------------------------------------------------------
$molecule
0 2
C      0.5475600491     -0.1546811321     -0.0074698369
C     -0.7680890371      0.0086818728     -0.2587589683
H      0.9572314317     -1.1331063805      0.2119916664
H      1.2553822635      0.6438658306     -0.1939727304
H     -1.4707658223     -0.8105695124     -0.1402507804
H     -1.1715034326      0.9748233234     -0.5465410580
O      0.5041235572      0.3528896806      2.1617628480
C      1.7311162934      0.2449127708      2.6455156956
O      2.7197055899     -0.0983799469      1.9421030628
O      1.8261335764      0.5173849900      3.8820377385
Li      3.6661975811      0.1112111547      3.5770194933
$end

$rem
job_type = freq
basis = def2-tzvppd
max_scf_cycles = 200
gen_scfman = true
xc_grid = 3
scf_algorithm = diis
resp_charges = true
symmetry = false
sym_ignore = true
method = wb97xv
solvent_method = smd
ideriv = 1
thresh = 14
$end

$smx
solvent other
$end
--------------------------------------------------------------
 ----------------------------------------------------------------
             Standard Nuclear Orientation (Angstroms)
    I     Atom           X                Y                Z
 ----------------------------------------------------------------
    1      C       0.5475600491    -0.1546811321    -0.0074698369
    2      C      -0.7680890371     0.0086818728    -0.2587589683
    3      H       0.9572314317    -1.1331063805     0.2119916664
    4      H       1.2553822635     0.6438658306    -0.1939727304
    5      H      -1.4707658223    -0.8105695124    -0.1402507804
    6      H      -1.1715034326     0.9748233234    -0.5465410580
    7      O       0.5041235572     0.3528896806     2.1617628480
    8      C       1.7311162934     0.2449127708     2.6455156956
    9      O       2.7197055899    -0.0983799469     1.9421030628
   10      O       1.8261335764     0.5173849900     3.8820377385
   11      Li      3.6661975811     0.1112111547     3.5770194933
 ----------------------------------------------------------------
 Nuclear Repulsion Energy =         240.89062022 hartrees
 There are       25 alpha and       24 beta electrons
 Requested basis set is def2-TZVPPD
 There are 119 shells and 321 basis functions

 Total QAlloc Memory Limit  96000 MB
 Mega-Array Size       188 MB
 MEM_STATIC part       192 MB
 
 Citation of the SMD model:
 Marenich, A.V.; Cramer, C.J.; Truhlar, D.G.
 J. Phys. Chem. B 2009, 113, 6378-6396.
 iSolventCode=           0
 Solvent: other                                                           
 
 vradii
            1           2           3           4           5           6
    1   1.8500000   1.8500000   1.2000000   1.2000000   1.2000000   1.2000000
            7           8           9          10          11
    1   2.2940000   1.8500000   2.2940000   2.2940000   2.1476001
 Changing PCM_VDW_RADII to SMD_RADIUS
 Discretize the solute cavity surface with Lebedev spheres
	Using 110 Lebedev grid points for each H atom
	Using 194 Lebedev grid points for other atoms
	Atomic van der Waals radii will be scaled by 1.20
 Remove points where switching function is < 1.0e-08
 Keep 843 surface tesserae and discard 955 interior tesserae
 Molecular Surface Area = 163.247 Angst**2

                       Distance Matrix (Angstroms)
             C (  1)   C (  2)   H (  3)   H (  4)   H (  5)   H (  6)
   C (  2)  1.349358
   H (  3)  1.083194  2.121796
   H (  4)  1.083270  2.121813  1.846979
   H (  5)  2.126372  1.085805  2.474525  3.090332
   H (  6)  2.126395  1.085814  3.090348  2.474593  1.855332
   O (  7)  2.228247  2.756071  2.493010  2.489688  3.248552  3.244909
   C (  8)  2.932373  3.838834  2.901702  2.906575  4.373395  4.375751
   O (  9)  2.919284  4.125526  2.677734  2.694066  4.733230  4.742006
   O ( 10)  4.149059  4.912735  4.116837  4.117720  5.367664  5.367251
   Li( 11)  4.758693  5.864009  4.495580  4.507342  6.407509  6.415055
             O (  7)   C (  8)   O (  9)   O ( 10)
   C (  8)  1.323324
   O (  9)  2.271717  1.260931
   O ( 10)  2.175802  1.269746  2.222832
   Li( 11)  3.472761  2.151770  1.900718  1.908887
 
 A cutoff of  1.0D-14 yielded   6665 shell pairs
 There are     49083 function pairs (     62432 Cartesian)
 Smallest overlap matrix eigenvalue = 6.42E-06
 Guess from superposition of atomic densities
 Warning:  Energy on first SCF cycle will be non-variational
 SAD guess density has 49.000000 electrons

 -----------------------------------------------------------------------
  General SCF calculation program by
  Eric Jon Sundstrom, Paul Horn, Yuezhi Mao, Dmitri Zuev, Alec White,
  David Stuck, Shaama M.S., Shane Yost, Joonho Lee, David Small,
  Daniel Levine, Susi Lehtola, Hugh Burton, Evgeny Epifanovsky,
  Bang C. Huynh
 -----------------------------------------------------------------------
 Exchange:     0.1670 Hartree-Fock + 1.0000 wB97X-V + LR-HF
 Correlation:  1.0000 wB97X-V
 Using SG-3 standard quadrature grid
 Nonlocal Correlation:  VV10 with C = 0.0100 and b = 6.00 and scale = 1.00000
 Grid used for NLC:  SG-1 standard quadrature
 
 Citation of the SMD model:
 Marenich, A.V.; Cramer, C.J.; Truhlar, D.G.
 J. Phys. Chem. B 2009, 113, 6378-6396.
 iSolventCode=           0
 Solvent: other                                                           
 
 vradii
            1           2           3           4           5           6
    1   1.8500000   1.8500000   1.2000000   1.2000000   1.2000000   1.2000000
            7           8           9          10          11
    1   2.2940000   1.8500000   2.2940000   2.2940000   2.1476001
 using 32 threads for integral computing
 -------------------------------------------------------
 OpenMP Integral computing Module                
 Release: version 1.0, May 2013, Q-Chem Inc. Pittsburgh 
 -------------------------------------------------------
 using 32 threads for integral computing
 -------------------------------------------------------
 OpenMP Integral computing Module                
 Release: version 1.0, May 2013, Q-Chem Inc. Pittsburgh 
 -------------------------------------------------------
 -------------------------------------------------------
 OpenMP BLAS3 based DFT computing Module                
 Release: version 1.0, May 2013, Q-Chem Inc. Pittsburgh 
 -------------------------------------------------------
 -------------------------------------------------------
 OpenMP BLAS3 based DFT computing Module                
 Release: version 1.0, May 2013, Q-Chem Inc. Pittsburgh 
 -------------------------------------------------------
 -------------------------------------------------------
 OpenMP BLAS3 based DFT computing Module                
 Release: version 1.0, May 2013, Q-Chem Inc. Pittsburgh 
 -------------------------------------------------------
 A unrestricted SCF calculation will be
 performed using DIIS
 SCF converges when DIIS error is below 1.0e-08
 ---------------------------------------
  Cycle       Energy         DIIS error
 ---------------------------------------
    1    -350.6037220295      1.18e-02  
    2    -349.7319443227      2.28e-03  
    3    -349.7305296642      2.57e-03  
    4    -349.9461586424      1.58e-04  
    5    -349.9485867866      1.50e-04  
    6    -349.9501353538      6.17e-05  
    7    -349.9513848819      4.71e-05  
    8    -349.9524553048      2.81e-05  
    9    -349.9528471416      1.84e-05  
   10    -349.9529636905      1.03e-05  
   11    -349.9530249557      6.99e-06  
   12    -349.9530493987      2.99e-06  
   13    -349.9530548147      1.41e-06  
   14    -349.9530559678      5.48e-07  
   15    -349.9530560908      3.06e-07  
   16    -349.9530561143      1.37e-07  
   17    -349.9530561207      5.08e-08  
   18    -349.9530561219      1.81e-08  
   19    -349.9530561220      8.86e-09  Convergence criterion met
 ---------------------------------------
 SCF time:   CPU 2146.38s  wall 81.00s 
<S^2> =          0.782272861
(3)  G-ENP(liq) elect-nuc-pol free energy of system     -349.953056122 a.u.
(4)  G-CDS(liq) cavity-dispersion-solvent structure 
     free energy                                               -1.7728 kcal/mol
(6)  G-S(liq) free energy of system                     -349.955881242 a.u.
 SCF   energy in the final basis set =     -349.9530561220
 Total energy in the final basis set =     -349.9558812423
 
 --------------------------------------------------------------
 
                    Orbital Energies (a.u.)
 --------------------------------------------------------------
 
 Alpha MOs
 -- Occupied --
-19.2530 -19.1787 -19.1745 -10.4080 -10.2829 -10.2821  -2.0982  -1.2312
 -1.1160  -1.0905  -0.9036  -0.7097  -0.6493  -0.5907  -0.5857  -0.5774
 -0.5673  -0.5311  -0.4700  -0.4631  -0.4302  -0.4178  -0.3831  -0.3752
 -0.3594
 -- Virtual --
  0.0304   0.0468   0.0481   0.0526   0.0812   0.0864   0.1075   0.1120
  0.1178   0.1287   0.1356   0.1388   0.1426   0.1474   0.1573   0.1654
  0.1734   0.1771   0.1790   0.1910   0.2095   0.2194   0.2243   0.2468
  0.2506   0.2636   0.2784   0.2874   0.2933   0.2985   0.3123   0.3145
  0.3235   0.3279   0.3400   0.3550   0.3584   0.3608   0.3761   0.3779
  0.3940   0.4002   0.4036   0.4175   0.4212   0.4272   0.4289   0.4304
  0.4424   0.4532   0.4587   0.4650   0.4720   0.4840   0.4844   0.4902
  0.4962   0.5041   0.5085   0.5168   0.5305   0.5374   0.5465   0.5485
  0.5594   0.5727   0.5890   0.5951   0.5994   0.6243   0.6291   0.6441
  0.6510   0.6663   0.6836   0.6847   0.6930   0.7110   0.7183   0.7271
  0.7432   0.7512   0.7584   0.7675   0.7847   0.7978   0.8046   0.8197
  0.8211   0.8322   0.8416   0.8528   0.8550   0.8767   0.8856   0.8892
  0.9034   0.9145   0.9602   0.9739   0.9873   1.0149   1.0235   1.0373
  1.0481   1.0539   1.0677   1.0965   1.1379   1.1659   1.1663   1.1990
  1.2038   1.2214   1.2480   1.2520   1.2564   1.2789   1.2921   1.2985
  1.3342   1.3520   1.3627   1.4022   1.4090   1.4534   1.4746   1.5273
  1.5412   1.5735   1.5862   1.5946   1.6325   1.6422   1.6952   1.7176
  1.7939   1.8457   1.8467   1.8650   1.8801   1.8891   1.9111   1.9151
  1.9417   1.9575   1.9661   1.9930   2.0286   2.0422   2.1190   2.1778
  2.1914   2.2411   2.2440   2.2601   2.2950   2.3229   2.3727   2.3899
  2.4149   2.4642   2.4863   2.5271   2.6573   2.6899   2.7651   2.7875
  2.8498   2.9092   2.9302   2.9326   2.9602   2.9765   2.9777   3.0028
  3.0199   3.0479   3.0681   3.0696   3.0853   3.1401   3.1824   3.2114
  3.2266   3.2358   3.2730   3.2973   3.3246   3.3675   3.3694   3.4034
  3.4063   3.4656   3.4712   3.4723   3.5245   3.5397   3.5434   3.5743
  3.5957   3.6161   3.6202   3.6402   3.6466   3.6478   3.6639   3.6816
  3.7327   3.8056   3.8424   3.8474   3.8557   3.8724   3.9562   4.0339
  4.1051   4.1118   4.1260   4.1771   4.1976   4.2078   4.2327   4.3229
  4.3613   4.4016   4.4275   4.4639   4.5442   4.6494   4.7015   4.7832
  4.7928   4.7963   4.8320   4.8606   4.9079   4.9983   5.1189   5.1264
  5.1956   5.2251   5.2539   5.2621   5.2776   5.2956   5.3060   5.3495
  5.3507   5.3800   5.5061   5.5255   5.5346   5.5787   5.5891   5.6317
  5.6338   5.6645   5.6975   5.8896   5.9435   5.9663   6.0049   6.0218
  6.0579   6.2512   6.2652   6.3026   6.3056   6.3659   6.4713   6.5137
  6.5503   6.5729   6.6611   6.6699   6.7013   6.7062   6.8145   6.8396
  6.8913   6.9370   6.9795   7.2503   7.2989   7.3582   7.4105   7.4489
  7.5808  14.7905  23.3825  23.8314  23.9114  44.1690  44.2384  44.3435
 
 Beta MOs
 -- Occupied --
-19.2374 -19.1764 -19.1744 -10.4085 -10.2834 -10.2782  -2.0981  -1.2175
 -1.0928  -1.0785  -0.8941  -0.7034  -0.6328  -0.5879  -0.5737  -0.5634
 -0.5568  -0.5273  -0.4614  -0.4139  -0.4030  -0.4023  -0.3818  -0.3496
 -- Virtual --
 -0.0663   0.0306   0.0468   0.0484   0.0529   0.0858   0.0959   0.1093
  0.1137   0.1181   0.1297   0.1356   0.1389   0.1429   0.1488   0.1580
  0.1659   0.1760   0.1783   0.1802   0.1916   0.2104   0.2194   0.2257
  0.2484   0.2515   0.2644   0.2798   0.2898   0.2957   0.2985   0.3139
  0.3149   0.3250   0.3288   0.3399   0.3557   0.3599   0.3615   0.3781
  0.3789   0.3944   0.4011   0.4046   0.4182   0.4217   0.4293   0.4293
  0.4320   0.4425   0.4545   0.4593   0.4669   0.4725   0.4844   0.4863
  0.4907   0.4964   0.5052   0.5129   0.5178   0.5314   0.5397   0.5488
  0.5497   0.5594   0.5752   0.5960   0.5998   0.6003   0.6285   0.6297
  0.6452   0.6512   0.6697   0.6842   0.6858   0.6961   0.7110   0.7196
  0.7294   0.7437   0.7527   0.7609   0.7690   0.7857   0.7994   0.8064
  0.8214   0.8234   0.8340   0.8434   0.8530   0.8567   0.8774   0.8869
  0.8920   0.9045   0.9187   0.9637   0.9765   0.9891   1.0154   1.0248
  1.0417   1.0503   1.0542   1.0747   1.0995   1.1393   1.1670   1.1684
  1.2018   1.2040   1.2234   1.2484   1.2541   1.2578   1.2845   1.2959
  1.2996   1.3384   1.3578   1.3648   1.4049   1.4106   1.4563   1.4778
  1.5308   1.5438   1.5754   1.5910   1.5971   1.6342   1.6445   1.6968
  1.7194   1.8012   1.8470   1.8546   1.8672   1.8868   1.9009   1.9174
  1.9197   1.9459   1.9663   1.9689   2.0064   2.0286   2.0440   2.1213
  2.1839   2.1939   2.2429   2.2457   2.2656   2.3010   2.3278   2.3777
  2.3983   2.4184   2.4663   2.4916   2.5291   2.6727   2.6943   2.7726
  2.7903   2.8530   2.9122   2.9374   2.9395   2.9658   2.9786   2.9875
  3.0047   3.0230   3.0568   3.0698   3.0723   3.0931   3.1533   3.1918
  3.2129   3.2324   3.2448   3.2777   3.2983   3.3247   3.3705   3.3810
  3.4061   3.4150   3.4720   3.4737   3.4744   3.5302   3.5437   3.5503
  3.5831   3.6040   3.6173   3.6230   3.6420   3.6500   3.6528   3.6665
  3.6850   3.7467   3.8062   3.8439   3.8500   3.8591   3.8745   3.9591
  4.0419   4.1068   4.1147   4.1264   4.1781   4.2000   4.2106   4.2356
  4.3245   4.3617   4.4037   4.4289   4.4663   4.5499   4.6524   4.7042
  4.7846   4.7969   4.7977   4.8353   4.8659   4.9160   5.0038   5.1233
  5.1278   5.1974   5.2383   5.2650   5.2665   5.2821   5.3003   5.3147
  5.3707   5.3757   5.3882   5.5184   5.5402   5.5445   5.5825   5.5963
  5.6378   5.6418   5.6682   5.7056   5.8934   5.9512   5.9719   6.0167
  6.0239   6.0580   6.2517   6.2710   6.3035   6.3127   6.3777   6.4852
  6.5156   6.5565   6.5948   6.6861   6.7036   6.7105   6.7172   6.8255
  6.8831   6.9091   6.9386   6.9822   7.2545   7.3197   7.3846   7.4202
  7.4624   7.5907  14.7905  23.3853  23.8323  23.9119  44.1715  44.2519
 44.3493
 --------------------------------------------------------------
 
          Ground-State Mulliken Net Atomic Charges

     Atom                 Charge (a.u.)    Spin (a.u.)
  --------------------------------------------------------
      1 C                     0.039534      -0.054864
      2 C                    -0.287160       0.331629
      3 H                     0.121814       0.000720
      4 H                     0.120781       0.000893
      5 H                     0.111866       0.003809
      6 H                     0.111682       0.003659
      7 O                    -0.295337       0.648231
      8 C                     0.785468      -0.028318
      9 O                    -0.790467       0.003263
     10 O                    -0.783854       0.089498
     11 Li                    0.865674       0.001480
  --------------------------------------------------------
  Sum of atomic charges =    -0.000000
  Sum of spin   charges =     1.000000

  Building new vdw surfaces
         Merz-Kollman RESP Net Atomic Charges

     Atom                 Charge (a.u.)
  ----------------------------------------
      1 C                    -0.290425
      2 C                    -0.367866
      3 H                     0.213724
      4 H                     0.213724
      5 H                     0.213582
      6 H                     0.213582
      7 O                    -0.305428
      8 C                     0.798006
      9 O                    -0.776046
     10 O                    -0.776046
     11 Li                    0.863193
  ----------------------------------------
  Sum of atomic charges =     0.000000

  Related Dipole Moment =     4.3836 (X  4.3056 Y -0.8130 Z -0.1285)

 -----------------------------------------------------------------
                    Cartesian Multipole Moments
 -----------------------------------------------------------------
    Charge (ESU x 10^10)
                -0.0000
    Dipole Moment (Debye)
         X       4.3761      Y      -0.8032      Z      -0.0196
       Tot       4.4493
    Quadrupole Moments (Debye-Ang)
        XX      -6.9430     XY       0.5027     YY     -36.3445
        XZ      25.2726     YZ      -4.5422     ZZ     -35.1161
    Octopole Moments (Debye-Ang^2)
       XXX       9.2237    XXY      -0.1274    XYY     -42.1986
       YYY     -15.6521    XXZ      68.3473    XYZ      -1.7696
       YYZ     -65.7131    XZZ      59.7684    YZZ     -21.4064
       ZZZ    -178.9869
    Hexadecapole Moments (Debye-Ang^3)
      XXXX     -72.3786   XXXY       3.2739   XXYY    -118.0199
      XYYY     -22.2424   YYYY     -65.6150   XXXZ     224.5616
      XXYZ     -10.1007   XYYZ    -121.2411   YYYZ     -60.1027
      XXZZ     216.4107   XYZZ     -23.6002   YYZZ    -220.2176
      XZZZ      10.6450   YZZZ    -128.4846   ZZZZ   -1200.0643
 -----------------------------------------------------------------
 Calculating analytic gradient of the SCF energy
 Gradient of CDS energy
            1           2           3           4           5           6
    1   0.0009038  -0.0014518   0.0001788   0.0000903   0.0001780   0.0001022
    2  -0.0002497   0.0002141   0.0003060  -0.0001827   0.0002075  -0.0002447
    3  -0.0004177  -0.0001303   0.0003133   0.0004252  -0.0000300   0.0000729
            7           8           9          10          11
    1  -0.0005775   0.0000523   0.0001152   0.0003790   0.0000297
    2  -0.0000238   0.0000085  -0.0000255  -0.0000076  -0.0000022
    3  -0.0005822   0.0000926  -0.0000206   0.0002661   0.0000107
 Gradient of SCF Energy
            1           2           3           4           5           6
    1  -0.0013711   0.0049351  -0.0004895  -0.0004126  -0.0019314  -0.0011501
    2  -0.0001786  -0.0005083  -0.0001287   0.0001579  -0.0021400   0.0024616
    3  -0.0015931   0.0013189  -0.0003090  -0.0003745   0.0001280  -0.0009129
            7           8           9          10          11
    1   0.0019512   0.0024994  -0.0054177  -0.0064438   0.0078305
    2   0.0004382  -0.0004727   0.0006498   0.0005436  -0.0008229
    3   0.0033903  -0.0000698  -0.0014450  -0.0027616   0.0026288
 Max gradient component =       7.830E-03
 RMS gradient           =       2.583E-03
 Computing fast CPCM-SWIG gradient
 Updating gradient with PCM contributions...
 -- total gradient after adding PCM contribution --
---------------------------------------------------
  Atom         X              Y              Z     
---------------------------------------------------
   1       0.000003      -0.000001       0.000013
   2       0.000005      -0.000003      -0.000006
   3      -0.000006      -0.000013       0.000010
   4       0.000009      -0.000004       0.000004
   5      -0.000004       0.000004      -0.000002
   6       0.000005       0.000002      -0.000004
   7      -0.000002       0.000012       0.000021
   8       0.000011      -0.000005      -0.000022
   9      -0.000016       0.000005      -0.000021
  10      -0.000002       0.000008      -0.000003
  11      -0.000003      -0.000006       0.000010
---------------------------------------------------
 Number of fixed atoms: 0
 Gradient time:  CPU 318.72 s  wall 14.53 s
 ######################################################
 ######################################################
 # Starting finite difference calculation for IDERIV  #
 Finite diff step size:  1.88973e-03 a.u.
 ----------------------------------------------------------------
             Standard Nuclear Orientation (Angstroms)
    I     Atom           X                Y                Z
 ----------------------------------------------------------------
    1      C       0.5485600491    -0.1546811321    -0.0074698369
    2      C      -0.7680890371     0.0086818728    -0.2587589683
    3      H       0.9572314317    -1.1331063805     0.2119916664
    4      H       1.2553822635     0.6438658306    -0.1939727304
    5      H      -1.4707658223    -0.8105695124    -0.1402507804
    6      H      -1.1715034326     0.9748233234    -0.5465410580
    7      O       0.5041235572     0.3528896806     2.1617628480
    8      C       1.7311162934     0.2449127708     2.6455156956
    9      O       2.7197055899    -0.0983799469     1.9421030628
   10      O       1.8261335764     0.5173849900     3.8820377385
   11      Li      3.6661975811     0.1112111547     3.5770194933
 ----------------------------------------------------------------
 Nuclear Repulsion Energy =         240.88572459 hartrees
 There are       25 alpha and       24 beta electrons
 Discretize the solute cavity surface with Lebedev spheres
	Using 110 Lebedev grid points for each H atom
	Using 194 Lebedev grid points for other atoms
	Atomic van der Waals radii will be scaled by 1.20
 Remove points where switching function is < 1.0e-08
 Keep 842 surface tesserae and discard 956 interior tesserae
 Molecular Surface Area = 163.248 Angst**2

                       Distance Matrix (Angstroms)
             C (  1)   C (  2)   H (  3)   H (  4)   H (  5)   H (  6)
   C (  2)  1.350333
   H (  3)  1.082817  2.121796
   H (  4)  1.082616  2.121813  1.846979
   H (  5)  2.127322  1.085805  2.474525  3.090332
   H (  6)  2.127204  1.085814  3.090348  2.474593  1.855332
   O (  7)  2.228267  2.756071  2.493010  2.489688  3.248552  3.244909
   C (  8)  2.931970  3.838834  2.901702  2.906575  4.373395  4.375751
   O (  9)  2.918540  4.125526  2.677734  2.694066  4.733230  4.742006
   O ( 10)  4.148751  4.912735  4.116837  4.117720  5.367664  5.367251
   Li( 11)  4.758038  5.864009  4.495580  4.507342  6.407509  6.415055
             O (  7)   C (  8)   O (  9)   O ( 10)
   C (  8)  1.323324
   O (  9)  2.271717  1.260931
   O ( 10)  2.175802  1.269746  2.222832
   Li( 11)  3.472761  2.151770  1.900718  1.908887
 
 Requested basis set is def2-TZVPPD
 There are 119 shells and 321 basis functions
 A cutoff of  1.0D-14 yielded   6665 shell pairs
 There are     49083 function pairs (     62432 Cartesian)
 Smallest overlap matrix eigenvalue = 6.45E-06
 Guess MOs from SCF MO coefficient file

 -----------------------------------------------------------------------
  General SCF calculation program by
  Eric Jon Sundstrom, Paul Horn, Yuezhi Mao, Dmitri Zuev, Alec White,
  David Stuck, Shaama M.S., Shane Yost, Joonho Lee, David Small,
  Daniel Levine, Susi Lehtola, Hugh Burton, Evgeny Epifanovsky,
  Bang C. Huynh
 -----------------------------------------------------------------------
 Exchange:     0.1670 Hartree-Fock + 1.0000 wB97X-V + LR-HF
 Correlation:  1.0000 wB97X-V
 Using SG-3 standard quadrature grid
 Nonlocal Correlation:  VV10 with C = 0.0100 and b = 6.00 and scale = 1.00000
 Grid used for NLC:  SG-1 standard quadrature
 
 Citation of the SMD model:
 Marenich, A.V.; Cramer, C.J.; Truhlar, D.G.
 J. Phys. Chem. B 2009, 113, 6378-6396.
 iSolventCode=           0
 Solvent: other                                                           
 
 vradii
            1           2           3           4           5           6
    1   1.8500000   1.8500000   1.2000000   1.2000000   1.2000000   1.2000000
            7           8           9          10          11
    1   2.2940000   1.8500000   2.2940000   2.2940000   2.1476001
 using 32 threads for integral computing
 -------------------------------------------------------
 OpenMP Integral computing Module                
 Release: version 1.0, May 2013, Q-Chem Inc. Pittsburgh 
 -------------------------------------------------------
 using 32 threads for integral computing
 -------------------------------------------------------
 OpenMP Integral computing Module                
 Release: version 1.0, May 2013, Q-Chem Inc. Pittsburgh 
 -------------------------------------------------------
 -------------------------------------------------------
 OpenMP BLAS3 based DFT computing Module                
 Release: version 1.0, May 2013, Q-Chem Inc. Pittsburgh 
 -------------------------------------------------------
 -------------------------------------------------------
 OpenMP BLAS3 based DFT computing Module                
 Release: version 1.0, May 2013, Q-Chem Inc. Pittsburgh 
 -------------------------------------------------------
 -------------------------------------------------------
 OpenMP BLAS3 based DFT computing Module                
 Release: version 1.0, May 2013, Q-Chem Inc. Pittsburgh 
 -------------------------------------------------------
 A unrestricted SCF calculation will be
 performed using Roothaan-Hall, DIIS
 SCF converges when DIIS error is below 1.0e-08
 ---------------------------------------
  Cycle       Energy         DIIS error
 ---------------------------------------
    1    -349.5977160505      1.08e-04  Roothaan Step
 ---------------------------------------
  Cycle       Energy         DIIS error
 ---------------------------------------
    1    -349.9517216953      1.30e-04  
    2    -349.9524655300      1.24e-04  
    3    -349.9530064223      2.79e-05  
    4    -349.9530443966      9.00e-06  
    5    -349.9530516903      4.14e-06  
    6    -349.9530537175      2.09e-06  
    7    -349.9530549263      1.56e-06  
    8    -349.9530556449      1.09e-06  
    9    -349.9530562439      6.03e-07  
   10    -349.9530564259      2.85e-07  
   11    -349.9530564683      1.49e-07  
   12    -349.9530564797      9.59e-08  
   13    -349.9530564850      3.62e-08  
   14    -349.9530564858      1.19e-08  
   15    -349.9530564859      6.15e-09  Convergence criterion met
 ---------------------------------------
 SCF time:   CPU 1820.32s  wall 69.00s 
<S^2> =          0.782465489
(3)  G-ENP(liq) elect-nuc-pol free energy of system     -349.953056486 a.u.
(4)  G-CDS(liq) cavity-dispersion-solvent structure 
     free energy                                               -1.7717 kcal/mol
(6)  G-S(liq) free energy of system                     -349.955879896 a.u.
 SCF   energy in the final basis set =     -349.9530564859
 Total energy in the final basis set =     -349.9558798962
 
 --------------------------------------------------------------
 
                    Orbital Energies (a.u.)
 --------------------------------------------------------------
 
 Alpha MOs
 -- Occupied --
-19.2528 -19.1786 -19.1744 -10.4079 -10.2831 -10.2823  -2.0981  -1.2311
 -1.1159  -1.0904  -0.9035  -0.7099  -0.6492  -0.5908  -0.5856  -0.5773
 -0.5672  -0.5310  -0.4698  -0.4633  -0.4301  -0.4177  -0.3831  -0.3751
 -0.3593
 -- Virtual --
  0.0304   0.0468   0.0481   0.0526   0.0810   0.0863   0.1076   0.1120
  0.1178   0.1288   0.1356   0.1389   0.1426   0.1474   0.1573   0.1654
  0.1734   0.1771   0.1791   0.1910   0.2095   0.2194   0.2243   0.2467
  0.2506   0.2637   0.2784   0.2874   0.2933   0.2985   0.3123   0.3145
  0.3235   0.3279   0.3400   0.3550   0.3584   0.3608   0.3762   0.3779
  0.3940   0.4002   0.4036   0.4175   0.4211   0.4272   0.4289   0.4304
  0.4424   0.4531   0.4587   0.4649   0.4719   0.4840   0.4844   0.4903
  0.4962   0.5040   0.5085   0.5167   0.5306   0.5373   0.5466   0.5486
  0.5594   0.5727   0.5890   0.5950   0.5995   0.6243   0.6292   0.6442
  0.6511   0.6664   0.6837   0.6848   0.6929   0.7110   0.7183   0.7271
  0.7432   0.7513   0.7584   0.7676   0.7847   0.7978   0.8045   0.8198
  0.8211   0.8320   0.8416   0.8529   0.8549   0.8768   0.8855   0.8890
  0.9034   0.9145   0.9603   0.9740   0.9874   1.0149   1.0235   1.0373
  1.0483   1.0539   1.0677   1.0964   1.1379   1.1659   1.1663   1.1991
  1.2038   1.2214   1.2479   1.2519   1.2565   1.2788   1.2921   1.2985
  1.3342   1.3519   1.3628   1.4023   1.4089   1.4534   1.4746   1.5272
  1.5411   1.5735   1.5862   1.5944   1.6325   1.6422   1.6953   1.7173
  1.7938   1.8457   1.8468   1.8650   1.8802   1.8891   1.9112   1.9151
  1.9417   1.9576   1.9662   1.9931   2.0287   2.0423   2.1191   2.1779
  2.1911   2.2412   2.2440   2.2601   2.2950   2.3228   2.3729   2.3899
  2.4150   2.4642   2.4863   2.5272   2.6573   2.6900   2.7648   2.7873
  2.8496   2.9095   2.9302   2.9323   2.9599   2.9764   2.9777   3.0029
  3.0198   3.0477   3.0678   3.0691   3.0855   3.1401   3.1825   3.2111
  3.2267   3.2358   3.2730   3.2975   3.3246   3.3674   3.3693   3.4031
  3.4064   3.4655   3.4711   3.4720   3.5245   3.5398   3.5436   3.5741
  3.5958   3.6162   3.6203   3.6402   3.6469   3.6478   3.6643   3.6814
  3.7328   3.8057   3.8420   3.8473   3.8554   3.8722   3.9560   4.0338
  4.1049   4.1116   4.1258   4.1769   4.1974   4.2078   4.2327   4.3229
  4.3612   4.4013   4.4274   4.4625   4.5433   4.6496   4.7015   4.7837
  4.7933   4.7964   4.8321   4.8606   4.9079   4.9986   5.1191   5.1264
  5.1961   5.2252   5.2538   5.2619   5.2777   5.2957   5.3061   5.3496
  5.3510   5.3801   5.5063   5.5256   5.5348   5.5790   5.5892   5.6318
  5.6337   5.6661   5.6976   5.8897   5.9433   5.9664   6.0044   6.0215
  6.0580   6.2513   6.2653   6.3026   6.3057   6.3660   6.4714   6.5137
  6.5504   6.5730   6.6612   6.6701   6.7015   6.7063   6.8145   6.8397
  6.8915   6.9371   6.9796   7.2504   7.2991   7.3583   7.4106   7.4490
  7.5809  14.7906  23.3834  23.8303  23.9106  44.1691  44.2386  44.3436
 
 Beta MOs
 -- Occupied --
-19.2373 -19.1763 -19.1743 -10.4084 -10.2835 -10.2784  -2.0981  -1.2174
 -1.0927  -1.0784  -0.8940  -0.7036  -0.6327  -0.5879  -0.5736  -0.5633
 -0.5568  -0.5272  -0.4617  -0.4138  -0.4029  -0.4022  -0.3817  -0.3495
 -- Virtual --
 -0.0662   0.0306   0.0468   0.0484   0.0530   0.0858   0.0958   0.1093
  0.1137   0.1181   0.1297   0.1356   0.1389   0.1429   0.1488   0.1580
  0.1659   0.1760   0.1783   0.1803   0.1917   0.2104   0.2193   0.2257
  0.2484   0.2515   0.2644   0.2798   0.2898   0.2957   0.2985   0.3139
  0.3150   0.3250   0.3288   0.3399   0.3557   0.3599   0.3615   0.3781
  0.3789   0.3944   0.4012   0.4046   0.4182   0.4217   0.4293   0.4293
  0.4320   0.4426   0.4545   0.4593   0.4669   0.4724   0.4844   0.4862
  0.4907   0.4964   0.5052   0.5130   0.5177   0.5314   0.5396   0.5488
  0.5498   0.5594   0.5752   0.5960   0.5998   0.6003   0.6286   0.6297
  0.6452   0.6512   0.6697   0.6842   0.6859   0.6960   0.7110   0.7196
  0.7294   0.7437   0.7527   0.7609   0.7691   0.7857   0.7994   0.8063
  0.8215   0.8234   0.8337   0.8434   0.8531   0.8567   0.8775   0.8868
  0.8918   0.9045   0.9187   0.9637   0.9765   0.9892   1.0155   1.0248
  1.0417   1.0504   1.0542   1.0747   1.0994   1.1393   1.1670   1.1684
  1.2018   1.2039   1.2233   1.2483   1.2540   1.2578   1.2845   1.2959
  1.2996   1.3384   1.3577   1.3649   1.4050   1.4105   1.4564   1.4778
  1.5307   1.5437   1.5753   1.5909   1.5969   1.6342   1.6446   1.6969
  1.7190   1.8010   1.8471   1.8546   1.8672   1.8870   1.9009   1.9174
  1.9198   1.9459   1.9664   1.9690   2.0065   2.0287   2.0441   2.1214
  2.1840   2.1936   2.2430   2.2457   2.2655   2.3010   2.3278   2.3779
  2.3983   2.4185   2.4663   2.4917   2.5292   2.6727   2.6944   2.7723
  2.7901   2.8529   2.9124   2.9370   2.9396   2.9654   2.9786   2.9876
  3.0047   3.0228   3.0568   3.0696   3.0718   3.0933   3.1534   3.1918
  3.2125   3.2325   3.2449   3.2777   3.2986   3.3247   3.3704   3.3809
  3.4059   3.4152   3.4719   3.4736   3.4740   3.5301   3.5438   3.5504
  3.5829   3.6041   3.6174   3.6231   3.6421   3.6502   3.6529   3.6670
  3.6848   3.7468   3.8063   3.8435   3.8499   3.8589   3.8744   3.9589
  4.0419   4.1067   4.1145   4.1263   4.1778   4.1997   4.2105   4.2355
  4.3245   4.3616   4.4035   4.4289   4.4649   4.5489   4.6526   4.7042
  4.7851   4.7971   4.7981   4.8354   4.8657   4.9160   5.0042   5.1235
  5.1278   5.1979   5.2383   5.2648   5.2663   5.2822   5.3004   5.3147
  5.3708   5.3759   5.3883   5.5185   5.5404   5.5446   5.5829   5.5964
  5.6378   5.6419   5.6696   5.7057   5.8935   5.9509   5.9720   6.0163
  6.0237   6.0581   6.2518   6.2711   6.3035   6.3128   6.3778   6.4852
  6.5156   6.5566   6.5948   6.6861   6.7037   6.7106   6.7173   6.8255
  6.8832   6.9092   6.9387   6.9822   7.2546   7.3198   7.3847   7.4203
  7.4625   7.5908  14.7906  23.3862  23.8312  23.9111  44.1716  44.2520
 44.3495
 --------------------------------------------------------------
 
          Ground-State Mulliken Net Atomic Charges

     Atom                 Charge (a.u.)    Spin (a.u.)
  --------------------------------------------------------
      1 C                     0.039781      -0.055032
      2 C                    -0.286931       0.332848
      3 H                     0.121927       0.000695
      4 H                     0.121033       0.000857
      5 H                     0.111912       0.003835
      6 H                     0.111712       0.003680
      7 O                    -0.295913       0.647386
      8 C                     0.785407      -0.028238
      9 O                    -0.790597       0.003203
     10 O                    -0.784006       0.089289
     11 Li                    0.865675       0.001476
  --------------------------------------------------------
  Sum of atomic charges =    -0.000000
  Sum of spin   charges =     1.000000

  Building new vdw surfaces
         Merz-Kollman RESP Net Atomic Charges

     Atom                 Charge (a.u.)
  ----------------------------------------
      1 C                    -0.290829
      2 C                    -0.367378
      3 H                     0.214127
      4 H                     0.214127
      5 H                     0.213564
      6 H                     0.213564
      7 O                    -0.306052
      8 C                     0.798359
      9 O                    -0.776325
     10 O                    -0.776325
     11 Li                    0.863167
  ----------------------------------------
  Sum of atomic charges =     0.000000

  Related Dipole Moment =     4.3795 (X  4.3007 Y -0.8149 Z -0.1392)

 -----------------------------------------------------------------
                    Cartesian Multipole Moments
 -----------------------------------------------------------------
    Charge (ESU x 10^10)
                -0.0000
    Dipole Moment (Debye)
         X       4.3713      Y      -0.8048      Z      -0.0305
       Tot       4.4449
    Quadrupole Moments (Debye-Ang)
        XX      -6.9515     XY       0.5024     YY     -36.3433
        XZ      25.2587     YZ      -4.5466     ZZ     -35.1464
    Octopole Moments (Debye-Ang^2)
       XXX       9.1684    XXY      -0.1290    XYY     -42.2060
       YYY     -15.6560    XXZ      68.3092    XYZ      -1.7741
       YYZ     -65.7212    XZZ      59.7153    YZZ     -21.4196
       ZZZ    -179.1017
    Hexadecapole Moments (Debye-Ang^3)
      XXXX     -72.5269   XXXY       3.2756   XXYY    -118.0300
      XYYY     -22.2420   YYYY     -65.6081   XXXZ     224.4541
      XXYZ     -10.1110   XYYZ    -121.2525   YYYZ     -60.1121
      XXZZ     216.2798   XYZZ     -23.6170   YYZZ    -220.2419
      XZZZ      10.4540   YZZZ    -128.5352   ZZZZ   -1200.5110
 -----------------------------------------------------------------
 Calculating analytic gradient of the SCF energy
 Gradient of CDS energy
            1           2           3           4           5           6
    1   0.0009060  -0.0014535   0.0001788   0.0000898   0.0001781   0.0001022
    2  -0.0002495   0.0002142   0.0003065  -0.0001834   0.0002076  -0.0002448
    3  -0.0004183  -0.0001305   0.0003135   0.0004256  -0.0000300   0.0000729
            7           8           9          10          11
    1  -0.0005774   0.0000524   0.0001151   0.0003790   0.0000297
    2  -0.0000238   0.0000084  -0.0000254  -0.0000076  -0.0000022
    3  -0.0005822   0.0000926  -0.0000204   0.0002661   0.0000107
 Gradient of SCF Energy
            1           2           3           4           5           6
    1   0.0000505   0.0040913  -0.0006667  -0.0007385  -0.0019766  -0.0011730
    2  -0.0002048  -0.0004360   0.0000435  -0.0000935  -0.0021458   0.0024771
    3  -0.0015788   0.0011716  -0.0003346  -0.0003031   0.0001193  -0.0009227
            7           8           9          10          11
    1   0.0019422   0.0025805  -0.0054661  -0.0064893   0.0078458
    2   0.0004673  -0.0004871   0.0006600   0.0005446  -0.0008252
    3   0.0035175  -0.0000712  -0.0014347  -0.0027939   0.0026304
 Max gradient component =       7.846E-03
 RMS gradient           =       2.546E-03
 Computing fast CPCM-SWIG gradient
 Updating gradient with PCM contributions...
 -- total gradient after adding PCM contribution --
---------------------------------------------------
  Atom         X              Y              Z     
---------------------------------------------------
   1       0.001421      -0.000029       0.000005
   2      -0.000841       0.000073      -0.000133
   3      -0.000187       0.000173      -0.000017
   4      -0.000326      -0.000267       0.000081
   5      -0.000036       0.000013      -0.000014
   6      -0.000011       0.000000      -0.000010
   7      -0.000012       0.000041       0.000146
   8       0.000095      -0.000019      -0.000018
   9      -0.000066       0.000014      -0.000016
  10      -0.000049       0.000008      -0.000038
  11       0.000011      -0.000008       0.000014
---------------------------------------------------
 Number of fixed atoms: 0
 Gradient time:  CPU 319.20 s  wall 14.54 s
 ----------------------------------------------------------------
             Standard Nuclear Orientation (Angstroms)
    I     Atom           X                Y                Z
 ----------------------------------------------------------------
    1      C       0.5465600491    -0.1546811321    -0.0074698369
    2      C      -0.7680890371     0.0086818728    -0.2587589683
    3      H       0.9572314317    -1.1331063805     0.2119916664
    4      H       1.2553822635     0.6438658306    -0.1939727304
    5      H      -1.4707658223    -0.8105695124    -0.1402507804
    6      H      -1.1715034326     0.9748233234    -0.5465410580
    7      O       0.5041235572     0.3528896806     2.1617628480
    8      C       1.7311162934     0.2449127708     2.6455156956
    9      O       2.7197055899    -0.0983799469     1.9421030628
   10      O       1.8261335764     0.5173849900     3.8820377385
   11      Li      3.6661975811     0.1112111547     3.5770194933
 ----------------------------------------------------------------
 Nuclear Repulsion Energy =         240.89552815 hartrees
 There are       25 alpha and       24 beta electrons
 Discretize the solute cavity surface with Lebedev spheres
	Using 110 Lebedev grid points for each H atom
	Using 194 Lebedev grid points for other atoms
	Atomic van der Waals radii will be scaled by 1.20
 Remove points where switching function is < 1.0e-08
 Keep 843 surface tesserae and discard 955 interior tesserae
 Molecular Surface Area = 163.246 Angst**2

                       Distance Matrix (Angstroms)
             C (  1)   C (  2)   H (  3)   H (  4)   H (  5)   H (  6)
   C (  2)  1.348383
   H (  3)  1.083573  2.121796
   H (  4)  1.083923  2.121813  1.846979
   H (  5)  2.125423  1.085805  2.474525  3.090332
   H (  6)  2.125587  1.085814  3.090348  2.474593  1.855332
   O (  7)  2.228228  2.756071  2.493010  2.489688  3.248552  3.244909
   C (  8)  2.932777  3.838834  2.901702  2.906575  4.373395  4.375751
   O (  9)  2.920028  4.125526  2.677734  2.694066  4.733230  4.742006
   O ( 10)  4.149367  4.912735  4.116837  4.117720  5.367664  5.367251
   Li( 11)  4.759349  5.864009  4.495580  4.507342  6.407509  6.415055
             O (  7)   C (  8)   O (  9)   O ( 10)
   C (  8)  1.323324
   O (  9)  2.271717  1.260931
   O ( 10)  2.175802  1.269746  2.222832
   Li( 11)  3.472761  2.151770  1.900718  1.908887
 
 Requested basis set is def2-TZVPPD
 There are 119 shells and 321 basis functions
 A cutoff of  1.0D-14 yielded   6665 shell pairs
 There are     49083 function pairs (     62432 Cartesian)
 Smallest overlap matrix eigenvalue = 6.39E-06
 Guess MOs from SCF MO coefficient file

 -----------------------------------------------------------------------
  General SCF calculation program by
  Eric Jon Sundstrom, Paul Horn, Yuezhi Mao, Dmitri Zuev, Alec White,
  David Stuck, Shaama M.S., Shane Yost, Joonho Lee, David Small,
  Daniel Levine, Susi Lehtola, Hugh Burton, Evgeny Epifanovsky,
  Bang C. Huynh
 -----------------------------------------------------------------------
 Exchange:     0.1670 Hartree-Fock + 1.0000 wB97X-V + LR-HF
 Correlation:  1.0000 wB97X-V
 Using SG-3 standard quadrature grid
 Nonlocal Correlation:  VV10 with C = 0.0100 and b = 6.00 and scale = 1.00000
 Grid used for NLC:  SG-1 standard quadrature
 
 Citation of the SMD model:
 Marenich, A.V.; Cramer, C.J.; Truhlar, D.G.
 J. Phys. Chem. B 2009, 113, 6378-6396.
 iSolventCode=           0
 Solvent: other                                                           
 
 vradii
            1           2           3           4           5           6
    1   1.8500000   1.8500000   1.2000000   1.2000000   1.2000000   1.2000000
            7           8           9          10          11
    1   2.2940000   1.8500000   2.2940000   2.2940000   2.1476001
 using 32 threads for integral computing
 -------------------------------------------------------
 OpenMP Integral computing Module                
 Release: version 1.0, May 2013, Q-Chem Inc. Pittsburgh 
 -------------------------------------------------------
 using 32 threads for integral computing
 -------------------------------------------------------
 OpenMP Integral computing Module                
 Release: version 1.0, May 2013, Q-Chem Inc. Pittsburgh 
 -------------------------------------------------------
 -------------------------------------------------------
 OpenMP BLAS3 based DFT computing Module                
 Release: version 1.0, May 2013, Q-Chem Inc. Pittsburgh 
 -------------------------------------------------------
 -------------------------------------------------------
 OpenMP BLAS3 based DFT computing Module                
 Release: version 1.0, May 2013, Q-Chem Inc. Pittsburgh 
 -------------------------------------------------------
 -------------------------------------------------------
 OpenMP BLAS3 based DFT computing Module                
 Release: version 1.0, May 2013, Q-Chem Inc. Pittsburgh 
 -------------------------------------------------------
 A unrestricted SCF calculation will be
 performed using Roothaan-Hall, DIIS
 SCF converges when DIIS error is below 1.0e-08
 ---------------------------------------
  Cycle       Energy         DIIS error
 ---------------------------------------
    1    -349.5977443895      1.09e-04  Roothaan Step
 ---------------------------------------
  Cycle       Energy         DIIS error
 ---------------------------------------
    1    -349.9517186256      1.31e-04  
    2    -349.9524559408      1.25e-04  
    3    -349.9530057215      2.78e-05  
    4    -349.9530428936      8.81e-06  
    5    -349.9530495323      4.02e-06  
    6    -349.9530511981      1.88e-06  
    7    -349.9530520555      1.34e-06  
    8    -349.9530525174      9.42e-07  
    9    -349.9530528929      5.26e-07  
   10    -349.9530530291      2.60e-07  
   11    -349.9530530638      1.39e-07  
   12    -349.9530530743      9.19e-08  
   13    -349.9530530798      3.65e-08  
   14    -349.9530530807      1.24e-08  
   15    -349.9530530808      6.26e-09  Convergence criterion met
 ---------------------------------------
 SCF time:   CPU 1828.60s  wall 69.00s 
<S^2> =          0.782079203
(3)  G-ENP(liq) elect-nuc-pol free energy of system     -349.953053081 a.u.
(4)  G-CDS(liq) cavity-dispersion-solvent structure 
     free energy                                               -1.7739 kcal/mol
(6)  G-S(liq) free energy of system                     -349.955879907 a.u.
 SCF   energy in the final basis set =     -349.9530530808
 Total energy in the final basis set =     -349.9558799069
 
 --------------------------------------------------------------
 
                    Orbital Energies (a.u.)
 --------------------------------------------------------------
 
 Alpha MOs
 -- Occupied --
-19.2532 -19.1788 -19.1746 -10.4081 -10.2827 -10.2819  -2.0982  -1.2313
 -1.1162  -1.0906  -0.9037  -0.7096  -0.6495  -0.5906  -0.5858  -0.5775
 -0.5673  -0.5312  -0.4701  -0.4628  -0.4303  -0.4179  -0.3832  -0.3753
 -0.3595
 -- Virtual --
  0.0304   0.0468   0.0481   0.0526   0.0813   0.0864   0.1075   0.1120
  0.1178   0.1287   0.1356   0.1388   0.1426   0.1474   0.1573   0.1654
  0.1734   0.1771   0.1790   0.1909   0.2094   0.2195   0.2243   0.2468
  0.2505   0.2636   0.2785   0.2873   0.2933   0.2985   0.3123   0.3144
  0.3235   0.3279   0.3400   0.3550   0.3584   0.3607   0.3761   0.3778
  0.3940   0.4001   0.4036   0.4175   0.4212   0.4271   0.4289   0.4304
  0.4423   0.4532   0.4587   0.4650   0.4721   0.4840   0.4844   0.4902
  0.4962   0.5041   0.5084   0.5169   0.5305   0.5375   0.5464   0.5485
  0.5594   0.5728   0.5889   0.5951   0.5994   0.6242   0.6291   0.6441
  0.6510   0.6663   0.6836   0.6847   0.6930   0.7110   0.7183   0.7271
  0.7432   0.7512   0.7584   0.7675   0.7846   0.7978   0.8046   0.8197
  0.8210   0.8325   0.8416   0.8527   0.8550   0.8766   0.8856   0.8894
  0.9034   0.9144   0.9602   0.9739   0.9873   1.0149   1.0234   1.0373
  1.0480   1.0539   1.0677   1.0965   1.1380   1.1659   1.1663   1.1989
  1.2039   1.2214   1.2480   1.2520   1.2564   1.2790   1.2921   1.2985
  1.3342   1.3520   1.3626   1.4022   1.4091   1.4534   1.4746   1.5274
  1.5413   1.5735   1.5863   1.5947   1.6325   1.6421   1.6951   1.7180
  1.7941   1.8456   1.8467   1.8650   1.8800   1.8892   1.9110   1.9150
  1.9416   1.9573   1.9661   1.9929   2.0285   2.0421   2.1189   2.1777
  2.1917   2.2411   2.2439   2.2602   2.2951   2.3229   2.3725   2.3899
  2.4148   2.4642   2.4862   2.5270   2.6572   2.6899   2.7654   2.7877
  2.8499   2.9090   2.9301   2.9330   2.9605   2.9766   2.9776   3.0027
  3.0201   3.0480   3.0683   3.0700   3.0851   3.1400   3.1824   3.2118
  3.2265   3.2358   3.2730   3.2970   3.3247   3.3676   3.3695   3.4036
  3.4062   3.4657   3.4713   3.4727   3.5246   3.5396   3.5432   3.5746
  3.5956   3.6160   3.6200   3.6401   3.6463   3.6478   3.6635   3.6817
  3.7326   3.8055   3.8427   3.8476   3.8560   3.8725   3.9564   4.0339
  4.1052   4.1120   4.1261   4.1774   4.1978   4.2079   4.2328   4.3228
  4.3615   4.4018   4.4275   4.4653   4.5452   4.6491   4.7015   4.7828
  4.7923   4.7962   4.8319   4.8607   4.9080   4.9979   5.1187   5.1264
  5.1951   5.2250   5.2540   5.2623   5.2775   5.2955   5.3059   5.3494
  5.3505   5.3799   5.5060   5.5254   5.5343   5.5783   5.5890   5.6316
  5.6339   5.6630   5.6974   5.8895   5.9437   5.9662   6.0055   6.0221
  6.0579   6.2512   6.2651   6.3025   6.3055   6.3658   6.4712   6.5137
  6.5503   6.5728   6.6609   6.6698   6.7012   6.7061   6.8144   6.8395
  6.8912   6.9370   6.9794   7.2502   7.2988   7.3581   7.4104   7.4488
  7.5807  14.7904  23.3817  23.8325  23.9121  44.1689  44.2382  44.3433
 
 Beta MOs
 -- Occupied --
-19.2376 -19.1765 -19.1744 -10.4086 -10.2832 -10.2780  -2.0982  -1.2175
 -1.0929  -1.0786  -0.8942  -0.7033  -0.6329  -0.5878  -0.5738  -0.5634
 -0.5569  -0.5274  -0.4611  -0.4140  -0.4030  -0.4024  -0.3819  -0.3497
 -- Virtual --
 -0.0664   0.0306   0.0468   0.0484   0.0529   0.0858   0.0960   0.1093
  0.1137   0.1181   0.1297   0.1356   0.1389   0.1429   0.1488   0.1580
  0.1659   0.1760   0.1783   0.1801   0.1916   0.2104   0.2194   0.2257
  0.2485   0.2515   0.2643   0.2798   0.2898   0.2957   0.2985   0.3139
  0.3149   0.3249   0.3288   0.3399   0.3557   0.3599   0.3615   0.3780
  0.3788   0.3944   0.4011   0.4046   0.4182   0.4217   0.4293   0.4293
  0.4320   0.4425   0.4545   0.4593   0.4670   0.4726   0.4844   0.4863
  0.4906   0.4964   0.5052   0.5128   0.5180   0.5313   0.5398   0.5487
  0.5497   0.5594   0.5752   0.5960   0.5997   0.6003   0.6285   0.6297
  0.6451   0.6512   0.6697   0.6841   0.6858   0.6961   0.7110   0.7196
  0.7294   0.7437   0.7526   0.7608   0.7690   0.7856   0.7994   0.8064
  0.8213   0.8234   0.8343   0.8434   0.8529   0.8568   0.8773   0.8869
  0.8922   0.9045   0.9186   0.9636   0.9765   0.9891   1.0154   1.0248
  1.0418   1.0502   1.0542   1.0748   1.0995   1.1394   1.1671   1.1684
  1.2017   1.2040   1.2234   1.2484   1.2541   1.2578   1.2846   1.2958
  1.2995   1.3383   1.3578   1.3648   1.4048   1.4107   1.4563   1.4778
  1.5309   1.5440   1.5754   1.5910   1.5972   1.6342   1.6445   1.6967
  1.7198   1.8013   1.8470   1.8545   1.8672   1.8867   1.9009   1.9174
  1.9197   1.9459   1.9661   1.9689   2.0063   2.0286   2.0439   2.1212
  2.1838   2.1943   2.2429   2.2457   2.2656   2.3011   2.3279   2.3775
  2.3984   2.4183   2.4663   2.4916   2.5290   2.6727   2.6943   2.7729
  2.7905   2.8531   2.9120   2.9377   2.9395   2.9662   2.9787   2.9874
  3.0046   3.0232   3.0569   3.0700   3.0728   3.0929   3.1532   3.1917
  3.2132   3.2323   3.2448   3.2777   3.2980   3.3247   3.3706   3.3811
  3.4064   3.4149   3.4721   3.4737   3.4749   3.5302   3.5436   3.5502
  3.5833   3.6039   3.6172   3.6229   3.6420   3.6498   3.6527   3.6660
  3.6852   3.7465   3.8061   3.8442   3.8501   3.8594   3.8747   3.9593
  4.0420   4.1070   4.1150   4.1266   4.1783   4.2002   4.2106   4.2357
  4.3244   4.3619   4.4039   4.4289   4.4677   4.5509   4.6521   4.7042
  4.7842   4.7967   4.7973   4.8352   4.8660   4.9160   5.0034   5.1231
  5.1278   5.1969   5.2382   5.2651   5.2666   5.2820   5.3003   5.3146
  5.3706   5.3754   5.3881   5.5182   5.5399   5.5444   5.5822   5.5962
  5.6378   5.6417   5.6667   5.7055   5.8933   5.9515   5.9718   6.0172
  6.0242   6.0580   6.2516   6.2709   6.3034   6.3126   6.3776   6.4851
  6.5157   6.5565   6.5947   6.6860   6.7035   6.7104   6.7170   6.8254
  6.8830   6.9090   6.9385   6.9821   7.2544   7.3196   7.3845   7.4202
  7.4623   7.5906  14.7904  23.3844  23.8334  23.9127  44.1714  44.2517
 44.3492
 --------------------------------------------------------------
 
          Ground-State Mulliken Net Atomic Charges

     Atom                 Charge (a.u.)    Spin (a.u.)
  --------------------------------------------------------
      1 C                     0.039273      -0.054692
      2 C                    -0.287385       0.330400
      3 H                     0.121702       0.000745
      4 H                     0.120532       0.000929
      5 H                     0.111820       0.003783
      6 H                     0.111651       0.003638
      7 O                    -0.294758       0.649080
      8 C                     0.785528      -0.028398
      9 O                    -0.790336       0.003320
     10 O                    -0.783700       0.089711
     11 Li                    0.865674       0.001485
  --------------------------------------------------------
  Sum of atomic charges =    -0.000000
  Sum of spin   charges =     1.000000

  Building new vdw surfaces
         Merz-Kollman RESP Net Atomic Charges

     Atom                 Charge (a.u.)
  ----------------------------------------
      1 C                    -0.290018
      2 C                    -0.368362
      3 H                     0.213320
      4 H                     0.213320
      5 H                     0.213600
      6 H                     0.213600
      7 O                    -0.304801
      8 C                     0.797651
      9 O                    -0.775764
     10 O                    -0.775764
     11 Li                    0.863219
  ----------------------------------------
  Sum of atomic charges =     0.000000

  Related Dipole Moment =     4.3878 (X  4.3105 Y -0.8111 Z -0.1176)

 -----------------------------------------------------------------
                    Cartesian Multipole Moments
 -----------------------------------------------------------------
    Charge (ESU x 10^10)
                -0.0000
    Dipole Moment (Debye)
         X       4.3810      Y      -0.8016      Z      -0.0086
       Tot       4.4537
    Quadrupole Moments (Debye-Ang)
        XX      -6.9344     XY       0.5031     YY     -36.3457
        XZ      25.2866     YZ      -4.5379     ZZ     -35.0856
    Octopole Moments (Debye-Ang^2)
       XXX       9.2794    XXY      -0.1258    XYY     -42.1911
       YYY     -15.6482    XXZ      68.3859    XYZ      -1.7650
       YYZ     -65.7049    XZZ      59.8221    YZZ     -21.3930
       ZZZ    -178.8711
    Hexadecapole Moments (Debye-Ang^3)
      XXXX     -72.2294   XXXY       3.2723   XXYY    -118.0097
      XYYY     -22.2428   YYYY     -65.6220   XXXZ     224.6702
      XXYZ     -10.0904   XYYZ    -121.2295   YYYZ     -60.0931
      XXZZ     216.5429   XYZZ     -23.5833   YYZZ    -220.1931
      XZZZ      10.8383   YZZZ    -128.4336   ZZZZ   -1199.6131
 -----------------------------------------------------------------
 Calculating analytic gradient of the SCF energy
 Gradient of CDS energy
            1           2           3           4           5           6
    1   0.0009016  -0.0014500   0.0001789   0.0000908   0.0001780   0.0001022
    2  -0.0002498   0.0002140   0.0003055  -0.0001820   0.0002075  -0.0002447
    3  -0.0004170  -0.0001301   0.0003132   0.0004248  -0.0000300   0.0000729
            7           8           9          10          11
    1  -0.0005775   0.0000523   0.0001152   0.0003790   0.0000297
    2  -0.0000237   0.0000085  -0.0000255  -0.0000076  -0.0000022
    3  -0.0005823   0.0000926  -0.0000209   0.0002661   0.0000107
 Gradient of SCF Energy
            1           2           3           4           5           6
    1  -0.0027964   0.0057832  -0.0003122  -0.0000875  -0.0018861  -0.0011271
    2  -0.0001505  -0.0005812  -0.0003006   0.0004078  -0.0021341   0.0024461
    3  -0.0016083   0.0014674  -0.0002836  -0.0004457   0.0001368  -0.0009032
            7           8           9          10          11
    1   0.0019609   0.0024164  -0.0053689  -0.0063975   0.0078152
    2   0.0004085  -0.0004575   0.0006396   0.0005424  -0.0008206
    3   0.0032618  -0.0000674  -0.0014556  -0.0027295   0.0026273
 Max gradient component =       7.815E-03
 RMS gradient           =       2.655E-03
 Computing fast CPCM-SWIG gradient
 Updating gradient with PCM contributions...
 -- total gradient after adding PCM contribution --
---------------------------------------------------
  Atom         X              Y              Z     
---------------------------------------------------
   1      -0.001417       0.000030       0.000019
   2       0.000855      -0.000080       0.000123
   3       0.000176      -0.000198       0.000036
   4       0.000343       0.000258      -0.000072
   5       0.000028      -0.000004       0.000010
   6       0.000021       0.000003       0.000001
   7       0.000008      -0.000018      -0.000105
   8      -0.000076       0.000011      -0.000024
   9       0.000034      -0.000005      -0.000027
  10       0.000045       0.000007       0.000031
  11      -0.000017      -0.000004       0.000007
---------------------------------------------------
 Number of fixed atoms: 0
 Gradient time:  CPU 320.16 s  wall 14.76 s
 ----------------------------------------------------------------
             Standard Nuclear Orientation (Angstroms)
    I     Atom           X                Y                Z
 ----------------------------------------------------------------
    1      C       0.5475600491    -0.1536811321    -0.0074698369
    2      C      -0.7680890371     0.0086818728    -0.2587589683
    3      H       0.9572314317    -1.1331063805     0.2119916664
    4      H       1.2553822635     0.6438658306    -0.1939727304
    5      H      -1.4707658223    -0.8105695124    -0.1402507804
    6      H      -1.1715034326     0.9748233234    -0.5465410580
    7      O       0.5041235572     0.3528896806     2.1617628480
    8      C       1.7311162934     0.2449127708     2.6455156956
    9      O       2.7197055899    -0.0983799469     1.9421030628
   10      O       1.8261335764     0.5173849900     3.8820377385
   11      Li      3.6661975811     0.1112111547     3.5770194933
 ----------------------------------------------------------------
 Nuclear Repulsion Energy =         240.89337745 hartrees
 There are       25 alpha and       24 beta electrons
 Discretize the solute cavity surface with Lebedev spheres
	Using 110 Lebedev grid points for each H atom
	Using 194 Lebedev grid points for other atoms
	Atomic van der Waals radii will be scaled by 1.20
 Remove points where switching function is < 1.0e-08
 Keep 843 surface tesserae and discard 955 interior tesserae
 Molecular Surface Area = 163.246 Angst**2

                       Distance Matrix (Angstroms)
             C (  1)   C (  2)   H (  3)   H (  4)   H (  5)   H (  6)
   C (  2)  1.349237
   H (  3)  1.084098  2.121796
   H (  4)  1.082533  2.121813  1.846979
   H (  5)  2.126681  1.085805  2.474525  3.090332
   H (  6)  2.125864  1.085814  3.090348  2.474593  1.855332
   O (  7)  2.228020  2.756071  2.493010  2.489688  3.248552  3.244909
   C (  8)  2.932237  3.838834  2.901702  2.906575  4.373395  4.375751
   O (  9)  2.919265  4.125526  2.677734  2.694066  4.733230  4.742006
   O ( 10)  4.148897  4.912735  4.116837  4.117720  5.367664  5.367251
   Li( 11)  4.758638  5.864009  4.495580  4.507342  6.407509  6.415055
             O (  7)   C (  8)   O (  9)   O ( 10)
   C (  8)  1.323324
   O (  9)  2.271717  1.260931
   O ( 10)  2.175802  1.269746  2.222832
   Li( 11)  3.472761  2.151770  1.900718  1.908887
 
 Requested basis set is def2-TZVPPD
 There are 119 shells and 321 basis functions
 A cutoff of  1.0D-14 yielded   6665 shell pairs
 There are     49083 function pairs (     62432 Cartesian)
 Smallest overlap matrix eigenvalue = 6.41E-06
 Guess MOs from SCF MO coefficient file

 -----------------------------------------------------------------------
  General SCF calculation program by
  Eric Jon Sundstrom, Paul Horn, Yuezhi Mao, Dmitri Zuev, Alec White,
  David Stuck, Shaama M.S., Shane Yost, Joonho Lee, David Small,
  Daniel Levine, Susi Lehtola, Hugh Burton, Evgeny Epifanovsky,
  Bang C. Huynh
 -----------------------------------------------------------------------
 Exchange:     0.1670 Hartree-Fock + 1.0000 wB97X-V + LR-HF
 Correlation:  1.0000 wB97X-V
 Using SG-3 standard quadrature grid
 Nonlocal Correlation:  VV10 with C = 0.0100 and b = 6.00 and scale = 1.00000
 Grid used for NLC:  SG-1 standard quadrature
 
 Citation of the SMD model:
 Marenich, A.V.; Cramer, C.J.; Truhlar, D.G.
 J. Phys. Chem. B 2009, 113, 6378-6396.
 iSolventCode=           0
 Solvent: other                                                           
 
 vradii
            1           2           3           4           5           6
    1   1.8500000   1.8500000   1.2000000   1.2000000   1.2000000   1.2000000
            7           8           9          10          11
    1   2.2940000   1.8500000   2.2940000   2.2940000   2.1476001
 using 32 threads for integral computing
 -------------------------------------------------------
 OpenMP Integral computing Module                
 Release: version 1.0, May 2013, Q-Chem Inc. Pittsburgh 
 -------------------------------------------------------
 using 32 threads for integral computing
 -------------------------------------------------------
 OpenMP Integral computing Module                
 Release: version 1.0, May 2013, Q-Chem Inc. Pittsburgh 
 -------------------------------------------------------
 -------------------------------------------------------
 OpenMP BLAS3 based DFT computing Module                
 Release: version 1.0, May 2013, Q-Chem Inc. Pittsburgh 
 -------------------------------------------------------
 -------------------------------------------------------
 OpenMP BLAS3 based DFT computing Module                
 Release: version 1.0, May 2013, Q-Chem Inc. Pittsburgh 
 -------------------------------------------------------
 -------------------------------------------------------
 OpenMP BLAS3 based DFT computing Module                
 Release: version 1.0, May 2013, Q-Chem Inc. Pittsburgh 
 -------------------------------------------------------
 A unrestricted SCF calculation will be
 performed using Roothaan-Hall, DIIS
 SCF converges when DIIS error is below 1.0e-08
 ---------------------------------------
  Cycle       Energy         DIIS error
 ---------------------------------------
    1    -349.5976825876      1.08e-04  Roothaan Step
 ---------------------------------------
  Cycle       Energy         DIIS error
 ---------------------------------------
    1    -349.9517220781      1.30e-04  
    2    -349.9524659373      1.24e-04  
    3    -349.9530044963      2.79e-05  
    4    -349.9530424504      8.99e-06  
    5    -349.9530497321      4.13e-06  
    6    -349.9530517556      2.09e-06  
    7    -349.9530529627      1.55e-06  
    8    -349.9530536802      1.09e-06  
    9    -349.9530542793      6.03e-07  
   10    -349.9530544610      2.85e-07  
   11    -349.9530545033      1.49e-07  
   12    -349.9530545145      9.55e-08  
   13    -349.9530545198      3.60e-08  
   14    -349.9530545206      1.18e-08  
   15    -349.9530545206      6.05e-09  Convergence criterion met
 ---------------------------------------
 SCF time:   CPU 1828.10s  wall 70.00s 
<S^2> =          0.782278017
(3)  G-ENP(liq) elect-nuc-pol free energy of system     -349.953054521 a.u.
(4)  G-CDS(liq) cavity-dispersion-solvent structure 
     free energy                                               -1.7731 kcal/mol
(6)  G-S(liq) free energy of system                     -349.955880109 a.u.
 SCF   energy in the final basis set =     -349.9530545206
 Total energy in the final basis set =     -349.9558801093
 
 --------------------------------------------------------------
 
                    Orbital Energies (a.u.)
 --------------------------------------------------------------
 
 Alpha MOs
 -- Occupied --
-19.2530 -19.1787 -19.1745 -10.4080 -10.2829 -10.2821  -2.0982  -1.2312
 -1.1160  -1.0905  -0.9037  -0.7097  -0.6493  -0.5907  -0.5857  -0.5774
 -0.5673  -0.5311  -0.4700  -0.4630  -0.4302  -0.4178  -0.3831  -0.3752
 -0.3594
 -- Virtual --
  0.0304   0.0468   0.0481   0.0526   0.0812   0.0864   0.1075   0.1120
  0.1178   0.1287   0.1356   0.1388   0.1426   0.1474   0.1573   0.1654
  0.1734   0.1771   0.1790   0.1909   0.2095   0.2194   0.2243   0.2468
  0.2506   0.2636   0.2784   0.2874   0.2933   0.2985   0.3123   0.3145
  0.3235   0.3279   0.3400   0.3550   0.3584   0.3608   0.3761   0.3779
  0.3940   0.4002   0.4036   0.4175   0.4212   0.4272   0.4289   0.4304
  0.4423   0.4532   0.4587   0.4650   0.4720   0.4840   0.4844   0.4902
  0.4962   0.5041   0.5085   0.5168   0.5305   0.5374   0.5465   0.5485
  0.5594   0.5728   0.5890   0.5951   0.5995   0.6243   0.6291   0.6441
  0.6511   0.6664   0.6836   0.6848   0.6930   0.7110   0.7183   0.7271
  0.7432   0.7512   0.7584   0.7675   0.7846   0.7978   0.8046   0.8198
  0.8211   0.8323   0.8416   0.8528   0.8549   0.8767   0.8856   0.8893
  0.9034   0.9145   0.9602   0.9739   0.9874   1.0150   1.0235   1.0373
  1.0481   1.0539   1.0677   1.0965   1.1379   1.1659   1.1663   1.1990
  1.2038   1.2214   1.2480   1.2520   1.2564   1.2789   1.2921   1.2985
  1.3342   1.3520   1.3627   1.4022   1.4090   1.4534   1.4746   1.5273
  1.5412   1.5735   1.5863   1.5946   1.6325   1.6421   1.6952   1.7177
  1.7939   1.8456   1.8467   1.8650   1.8801   1.8891   1.9110   1.9151
  1.9416   1.9575   1.9662   1.9931   2.0286   2.0422   2.1190   2.1779
  2.1914   2.2411   2.2439   2.2601   2.2951   2.3228   2.3726   2.3900
  2.4149   2.4642   2.4862   2.5271   2.6572   2.6900   2.7652   2.7875
  2.8498   2.9092   2.9301   2.9327   2.9602   2.9765   2.9778   3.0028
  3.0199   3.0479   3.0681   3.0696   3.0853   3.1401   3.1825   3.2114
  3.2266   3.2358   3.2730   3.2972   3.3246   3.3674   3.3694   3.4034
  3.4063   3.4656   3.4711   3.4725   3.5245   3.5397   3.5434   3.5743
  3.5957   3.6161   3.6201   3.6402   3.6466   3.6478   3.6637   3.6816
  3.7327   3.8055   3.8424   3.8474   3.8558   3.8725   3.9563   4.0339
  4.1050   4.1118   4.1261   4.1772   4.1977   4.2078   4.2328   4.3227
  4.3613   4.4016   4.4274   4.4641   4.5444   4.6493   4.7015   4.7831
  4.7927   4.7962   4.8320   4.8607   4.9080   4.9982   5.1187   5.1264
  5.1955   5.2251   5.2539   5.2622   5.2776   5.2956   5.3060   5.3495
  5.3508   5.3800   5.5061   5.5255   5.5346   5.5786   5.5891   5.6317
  5.6338   5.6642   5.6975   5.8896   5.9435   5.9663   6.0050   6.0218
  6.0579   6.2512   6.2652   6.3026   6.3056   6.3659   6.4713   6.5134
  6.5504   6.5730   6.6611   6.6700   6.7013   6.7062   6.8145   6.8396
  6.8913   6.9371   6.9795   7.2503   7.2990   7.3582   7.4105   7.4489
  7.5808  14.7905  23.3823  23.8315  23.9115  44.1690  44.2384  44.3435
 
 Beta MOs
 -- Occupied --
-19.2374 -19.1764 -19.1744 -10.4085 -10.2834 -10.2782  -2.0981  -1.2175
 -1.0928  -1.0785  -0.8941  -0.7034  -0.6328  -0.5879  -0.5737  -0.5633
 -0.5568  -0.5273  -0.4613  -0.4139  -0.4030  -0.4023  -0.3818  -0.3496
 -- Virtual --
 -0.0663   0.0306   0.0468   0.0484   0.0529   0.0858   0.0959   0.1093
  0.1137   0.1181   0.1297   0.1356   0.1389   0.1429   0.1488   0.1580
  0.1659   0.1760   0.1783   0.1802   0.1916   0.2104   0.2194   0.2257
  0.2484   0.2515   0.2644   0.2798   0.2898   0.2957   0.2985   0.3139
  0.3149   0.3249   0.3288   0.3399   0.3557   0.3599   0.3615   0.3781
  0.3788   0.3944   0.4011   0.4046   0.4182   0.4217   0.4293   0.4293
  0.4320   0.4425   0.4545   0.4593   0.4669   0.4725   0.4844   0.4863
  0.4906   0.4964   0.5052   0.5129   0.5178   0.5314   0.5398   0.5487
  0.5497   0.5594   0.5752   0.5960   0.5998   0.6003   0.6285   0.6297
  0.6452   0.6513   0.6697   0.6842   0.6858   0.6961   0.7110   0.7196
  0.7294   0.7437   0.7526   0.7609   0.7690   0.7857   0.7994   0.8064
  0.8215   0.8234   0.8340   0.8434   0.8530   0.8567   0.8774   0.8869
  0.8921   0.9045   0.9186   0.9637   0.9765   0.9892   1.0155   1.0248
  1.0417   1.0503   1.0542   1.0747   1.0995   1.1393   1.1671   1.1684
  1.2017   1.2040   1.2234   1.2483   1.2541   1.2578   1.2845   1.2959
  1.2996   1.3384   1.3578   1.3648   1.4049   1.4106   1.4564   1.4778
  1.5308   1.5438   1.5754   1.5910   1.5971   1.6342   1.6445   1.6968
  1.7195   1.8011   1.8471   1.8545   1.8672   1.8868   1.9009   1.9174
  1.9197   1.9459   1.9663   1.9690   2.0065   2.0287   2.0440   2.1213
  2.1839   2.1940   2.2429   2.2456   2.2656   2.3011   2.3278   2.3776
  2.3984   2.4184   2.4663   2.4916   2.5292   2.6727   2.6944   2.7727
  2.7904   2.8530   2.9121   2.9373   2.9396   2.9658   2.9786   2.9875
  3.0047   3.0230   3.0568   3.0699   3.0724   3.0931   3.1533   3.1918
  3.2129   3.2324   3.2449   3.2777   3.2983   3.3247   3.3705   3.3810
  3.4061   3.4150   3.4720   3.4736   3.4745   3.5302   3.5437   3.5503
  3.5831   3.6040   3.6173   3.6230   3.6420   3.6500   3.6528   3.6663
  3.6850   3.7467   3.8061   3.8439   3.8500   3.8592   3.8746   3.9592
  4.0420   4.1068   4.1147   4.1265   4.1781   4.2000   4.2106   4.2356
  4.3243   4.3617   4.4037   4.4289   4.4665   4.5500   4.6524   4.7042
  4.7845   4.7968   4.7977   4.8353   4.8659   4.9160   5.0037   5.1231
  5.1278   5.1973   5.2383   5.2647   5.2668   5.2821   5.3003   5.3147
  5.3708   5.3757   5.3882   5.5183   5.5402   5.5446   5.5825   5.5963
  5.6378   5.6418   5.6678   5.7056   5.8934   5.9511   5.9719   6.0168
  6.0239   6.0580   6.2517   6.2710   6.3035   6.3127   6.3777   6.4852
  6.5153   6.5565   6.5948   6.6861   6.7036   6.7105   6.7172   6.8255
  6.8832   6.9091   6.9386   6.9822   7.2545   7.3198   7.3846   7.4203
  7.4624   7.5907  14.7905  23.3851  23.8324  23.9120  44.1715  44.2519
 44.3493
 --------------------------------------------------------------
 
          Ground-State Mulliken Net Atomic Charges

     Atom                 Charge (a.u.)    Spin (a.u.)
  --------------------------------------------------------
      1 C                     0.039683      -0.054853
      2 C                    -0.287257       0.331708
      3 H                     0.121400       0.000756
      4 H                     0.121191       0.000863
      5 H                     0.111910       0.003825
      6 H                     0.111631       0.003647
      7 O                    -0.295369       0.648142
      8 C                     0.785465      -0.028305
      9 O                    -0.790473       0.003255
     10 O                    -0.783858       0.089481
     11 Li                    0.865676       0.001480
  --------------------------------------------------------
  Sum of atomic charges =    -0.000000
  Sum of spin   charges =     1.000000

  Building new vdw surfaces
         Merz-Kollman RESP Net Atomic Charges

     Atom                 Charge (a.u.)
  ----------------------------------------
      1 C                    -0.290092
      2 C                    -0.367961
      3 H                     0.213612
      4 H                     0.213612
      5 H                     0.213601
      6 H                     0.213601
      7 O                    -0.305456
      8 C                     0.798020
      9 O                    -0.776064
     10 O                    -0.776064
     11 Li                    0.863191
  ----------------------------------------
  Sum of atomic charges =     0.000000

  Related Dipole Moment =     4.3833 (X  4.3050 Y -0.8144 Z -0.1291)

 -----------------------------------------------------------------
                    Cartesian Multipole Moments
 -----------------------------------------------------------------
    Charge (ESU x 10^10)
                -0.0000
    Dipole Moment (Debye)
         X       4.3759      Y      -0.8028      Z      -0.0206
       Tot       4.4489
    Quadrupole Moments (Debye-Ang)
        XX      -6.9425     XY       0.5061     YY     -36.3458
        XZ      25.2707     YZ      -4.5420     ZZ     -35.1178
    Octopole Moments (Debye-Ang^2)
       XXX       9.2214    XXY      -0.1324    XYY     -42.1999
       YYY     -15.6654    XXZ      68.3439    XYZ      -1.7707
       YYZ     -65.7140    XZZ      59.7656    YZZ     -21.4123
       ZZZ    -178.9961
    Hexadecapole Moments (Debye-Ang^3)
      XXXX     -72.3783   XXXY       3.2779   XXYY    -118.0211
      XYYY     -22.2438   YYYY     -65.6115   XXXZ     224.5506
      XXYZ     -10.1003   XYYZ    -121.2425   YYYZ     -60.1019
      XXZZ     216.4032   XYZZ     -23.6015   YYZZ    -220.2187
      XZZZ      10.6305   YZZZ    -128.4875   ZZZZ   -1200.0918
 -----------------------------------------------------------------
 Calculating analytic gradient of the SCF energy
 Gradient of CDS energy
            1           2           3           4           5           6
    1   0.0009039  -0.0014516   0.0001792   0.0000897   0.0001780   0.0001022
    2  -0.0002460   0.0002131   0.0003046  -0.0001837   0.0002075  -0.0002447
    3  -0.0004182  -0.0001302   0.0003136   0.0004254  -0.0000300   0.0000729
            7           8           9          10          11
    1  -0.0005775   0.0000523   0.0001152   0.0003790   0.0000297
    2  -0.0000241   0.0000085  -0.0000254  -0.0000076  -0.0000022
    3  -0.0005821   0.0000926  -0.0000207   0.0002661   0.0000107
 Gradient of SCF Energy
            1           2           3           4           5           6
    1  -0.0014001   0.0050415  -0.0003128  -0.0006729  -0.0019833  -0.0010917
    2   0.0010124  -0.0007273  -0.0006905  -0.0002569  -0.0021285   0.0024645
    3  -0.0018487   0.0013670  -0.0001965  -0.0002946   0.0001179  -0.0008975
            7           8           9          10          11
    1   0.0019553   0.0024993  -0.0054218  -0.0064454   0.0078319
    2   0.0004288  -0.0004700   0.0006447   0.0005453  -0.0008225
    3   0.0033994  -0.0000685  -0.0014436  -0.0027639   0.0026290
 Max gradient component =       7.832E-03
 RMS gradient           =       2.607E-03
 Computing fast CPCM-SWIG gradient
 Updating gradient with PCM contributions...
 -- total gradient after adding PCM contribution --
---------------------------------------------------
  Atom         X              Y              Z     
---------------------------------------------------
   1      -0.000024       0.001200      -0.000245
   2       0.000109      -0.000227       0.000043
   3       0.000172      -0.000578       0.000123
   4      -0.000254      -0.000422       0.000086
   5      -0.000053       0.000019      -0.000012
   6       0.000062       0.000005       0.000010
   7       0.000002       0.000002       0.000030
   8       0.000011      -0.000004      -0.000020
   9      -0.000020       0.000001      -0.000021
  10      -0.000004       0.000010      -0.000006
  11      -0.000002      -0.000006       0.000011
---------------------------------------------------
 Number of fixed atoms: 0
 Gradient time:  CPU 319.33 s  wall 14.60 s
 ----------------------------------------------------------------
             Standard Nuclear Orientation (Angstroms)
    I     Atom           X                Y                Z
 ----------------------------------------------------------------
    1      C       0.5475600491    -0.1556811321    -0.0074698369
    2      C      -0.7680890371     0.0086818728    -0.2587589683
    3      H       0.9572314317    -1.1331063805     0.2119916664
    4      H       1.2553822635     0.6438658306    -0.1939727304
    5      H      -1.4707658223    -0.8105695124    -0.1402507804
    6      H      -1.1715034326     0.9748233234    -0.5465410580
    7      O       0.5041235572     0.3528896806     2.1617628480
    8      C       1.7311162934     0.2449127708     2.6455156956
    9      O       2.7197055899    -0.0983799469     1.9421030628
   10      O       1.8261335764     0.5173849900     3.8820377385
   11      Li      3.6661975811     0.1112111547     3.5770194933
 ----------------------------------------------------------------
 Nuclear Repulsion Energy =         240.88785640 hartrees
 There are       25 alpha and       24 beta electrons
 Discretize the solute cavity surface with Lebedev spheres
	Using 110 Lebedev grid points for each H atom
	Using 194 Lebedev grid points for other atoms
	Atomic van der Waals radii will be scaled by 1.20
 Remove points where switching function is < 1.0e-08
 Keep 843 surface tesserae and discard 955 interior tesserae
 Molecular Surface Area = 163.248 Angst**2

                       Distance Matrix (Angstroms)
             C (  1)   C (  2)   H (  3)   H (  4)   H (  5)   H (  6)
   C (  2)  1.349479
   H (  3)  1.082291  2.121796
[...]
    11    1.031172847766049e-02  -3.466275159910296e-03  -1.059753154693565e-02


    11 Order 1, Length 33
    Atom      X          Y          Z
     1    7.413950164479018e-03   6.201800164476666e-04   8.105124937032507e-03
     2   -6.158721025295376e-03   1.060269661377053e-03   9.510703480525835e-05
     3   -3.019049351519867e-05  -2.804706852996079e-04  -8.074773168230855e-04
     4    1.492905378073186e-05  -8.836023645293647e-05  -8.609071912119296e-04
     5    1.703328889456922e-04  -5.720745958713332e-06  -1.557863422461338e-04
     6    1.504486356030218e-04  -1.128509225900087e-04  -1.217219698632549e-04
     7   -6.329593868366346e-04  -1.160663097497209e-03  -5.625894796885293e-03
     8   -2.900257751836371e-02   9.501478955247546e-04  -2.269165216736101e-02
     9   -7.704831135589678e-03  -1.073310515811781e-03  -7.621400459400027e-03
    10   -2.144261030675283e-02   5.558088134920517e-03   1.031172847766049e-02
    11    5.722249779095797e-02  -5.468205067131230e-03   1.937294742359513e-02

Order 1, Length 33
    Atom      X          Y          Z
     1   -8.626181745659575e-04  -6.522020831686116e-05  -9.024250756680046e-04
     2    7.135588407812423e-04  -7.822316581053106e-05   7.681988528265148e-06
     3   -2.935742550728082e-05   4.685088548817562e-05   8.703976670953298e-05
     4    2.445373772081300e-05   4.785895406935514e-05   5.539528396783616e-05
     5   -1.242417028670906e-05  -7.393738529952825e-06  -9.434681453975712e-06
     6   -1.265393299225037e-05   1.463513748710866e-05   3.421281942361236e-05
     7    7.224903801987090e-04   1.553785138501122e-04   4.750491697591176e-04
     8    4.744824484329982e-04   6.590693695243781e-03   5.122587956148953e-03
     9   -5.012634653519543e-04  -5.349779229385643e-03  -4.513747804389547e-03
    10    4.951526090508402e-03  -5.826270035863760e-03  -3.466275159910296e-03
    11   -5.468205067131230e-03   4.471549057840302e-03   3.109936440722842e-03

Order 1, Length 33
    Atom      X          Y          Z
     1    2.068095590107765e-03   2.182627972489637e-04   2.433883368336390e-03
     2   -1.758658941357260e-03   3.175603478623211e-04   1.459986315778216e-04
     3   -5.432608702462791e-05  -1.825552516552466e-04  -2.904833844664470e-04
     4   -2.469079712149282e-05   3.797295715210888e-05  -3.323225326335687e-04
     5    7.408695095658120e-05  -4.467453567166294e-06  -5.315055879219703e-05
     6    6.897334586472811e-05  -4.443468222004942e-05  -5.756681468506359e-05
     7    2.398951038402835e-03  -9.766567007467790e-04  -2.166242168681228e-03
     8   -2.456937160466314e-02   5.412907704894438e-03   9.596359805469024e-03
     9   -5.254803443442800e-03  -4.923047606781890e-03  -2.923378848582483e-02
    10    7.678920132106894e-03  -2.965761262510498e-03  -1.059753154693565e-02
    11    1.937294742359513e-02   3.109936440722842e-03   3.055495957144204e-02




 # Finishing finite difference calculation for IDERIV #
 ######################################################
 ######################################################
 Requested basis set is def2-TZVPPD
 There are 119 shells and 321 basis functions
 **********************************************************************
 **                                                                  **
 **                       VIBRATIONAL ANALYSIS                       **
 **                       --------------------                       **
 **                                                                  **
 **        VIBRATIONAL FREQUENCIES (CM**-1) AND NORMAL MODES         **
 **     FORCE CONSTANTS (mDYN/ANGSTROM) AND REDUCED MASSES (AMU)     **
 **                  INFRARED INTENSITIES (KM/MOL)                   **
 **                                                                  **
 **********************************************************************
 

 Mode:                 1                      2                      3
 Frequency:      -344.53                  30.92                  77.26
 Force Cnst:      0.6628                 0.0013                 0.0246
 Red. Mass:       9.4772                 2.2920                 7.0005
 IR Active:          YES                    YES                    YES
 IR Intens:      930.136                  4.186                 28.279
 Raman Active:       YES                    YES                    YES
               X      Y      Z        X      Y      Z        X      Y      Z
 C          0.074  0.141  0.665    0.033  0.195 -0.046   -0.034 -0.178  0.037
 C          0.010  0.025  0.116   -0.030 -0.180  0.044   -0.029 -0.139  0.036
 H          0.070  0.079  0.364    0.338  0.302 -0.142   -0.112 -0.151  0.306
 H          0.067  0.066  0.357   -0.216  0.421 -0.028    0.028 -0.294 -0.219
 H          0.052 -0.026 -0.032    0.226 -0.404  0.012   -0.097 -0.041  0.311
 H          0.054 -0.010 -0.044   -0.342 -0.277  0.153    0.046 -0.192 -0.247
 O          0.009 -0.094 -0.402    0.018  0.101 -0.024    0.060  0.318 -0.077
 C         -0.074 -0.017 -0.130    0.002  0.008 -0.002    0.024  0.123 -0.029
 O          0.071 -0.016 -0.016   -0.017 -0.093  0.022    0.057  0.297 -0.068
 O         -0.044 -0.016 -0.100    0.006  0.032 -0.008   -0.046 -0.249  0.058
 Li        -0.132  0.018 -0.024   -0.025 -0.136  0.033   -0.076 -0.406  0.102
 TransDip  -0.487 -0.108 -0.840   -0.012 -0.063  0.016   -0.031 -0.162  0.040

 Mode:                 4                      5                      6
 Frequency:       137.25                 142.77                 156.46
 Force Cnst:      0.0944                 0.0559                 0.0570
 Red. Mass:       8.5010                 4.6574                 3.9512
 IR Active:          YES                    YES                    YES
 IR Intens:       66.590                 18.947                  2.573
 Raman Active:       YES                    YES                    YES
               X      Y      Z        X      Y      Z        X      Y      Z
 C          0.024  0.003  0.042   -0.076 -0.029 -0.189    0.230 -0.060 -0.074
 C          0.033 -0.040 -0.037   -0.140  0.076  0.218    0.180  0.041  0.310
 H          0.008  0.046  0.255   -0.082 -0.063 -0.320    0.229 -0.081 -0.165
 H          0.037 -0.042 -0.104   -0.075 -0.065 -0.349    0.234 -0.080 -0.148
 H          0.025 -0.011  0.119   -0.165  0.127  0.419    0.158  0.086  0.486
 H          0.049 -0.103 -0.269   -0.159  0.120  0.393    0.161  0.092  0.510
 O          0.028  0.343 -0.036    0.127 -0.025 -0.185   -0.103  0.016  0.002
 C         -0.040 -0.108  0.038    0.066 -0.041 -0.047   -0.093  0.010 -0.038
 O         -0.083 -0.208  0.026    0.170 -0.039  0.102   -0.123  0.007 -0.084
 O         -0.030 -0.311  0.081   -0.122 -0.026 -0.031   -0.036 -0.001 -0.041
 Li         0.147  0.667 -0.237   -0.072  0.179  0.270   -0.057 -0.036 -0.157
 TransDip   0.059  0.242 -0.078   -0.063  0.083  0.092    0.017 -0.019 -0.045

 Mode:                 7                      8                      9
 Frequency:       292.38                 350.40                 527.86
 Force Cnst:      0.0563                 0.6291                 1.2413
 Red. Mass:       1.1184                 8.6966                 7.5613
 IR Active:          YES                    YES                    YES
 IR Intens:        0.060                 85.041                374.854
 Raman Active:       YES                    YES                    YES
               X      Y      Z        X      Y      Z        X      Y      Z
 C          0.013  0.069 -0.018    0.019  0.010  0.061    0.001  0.007  0.032
 C          0.000 -0.001  0.003    0.047 -0.006  0.007    0.023  0.001  0.021
 H          0.002  0.156  0.376    0.020  0.030  0.143    0.005  0.025  0.101
 H          0.022 -0.027 -0.411    0.021  0.028  0.145    0.004  0.020  0.102
 H         -0.029  0.106  0.564    0.049 -0.015 -0.033    0.021  0.003  0.025
 H          0.022 -0.156 -0.548    0.050 -0.016 -0.032    0.021  0.002  0.027
 O         -0.010 -0.054  0.013   -0.069  0.056  0.181   -0.177  0.030 -0.012
 C         -0.002 -0.012  0.002    0.059 -0.051 -0.168   -0.071 -0.009 -0.095
 O         -0.001 -0.003  0.001   -0.069 -0.055 -0.284   -0.039  0.003 -0.019
 O          0.002  0.013 -0.004    0.209 -0.073 -0.145   -0.124 -0.009 -0.135
 Li        -0.002 -0.006  0.002   -0.396  0.241  0.702    0.849 -0.059  0.411
 TransDip   0.003  0.007  0.001   -0.065  0.078  0.277    0.501 -0.005  0.366

 Mode:                10                     11                     12
 Frequency:       539.25                 695.83                 823.81
 Force Cnst:      1.6959                 4.0424                 0.4229
 Red. Mass:       9.8986                14.1704                 1.0575
 IR Active:          YES                    YES                    YES
 IR Intens:      245.108                242.325                  3.257
 Raman Active:       YES                    YES                    YES
               X      Y      Z        X      Y      Z        X      Y      Z
 C          0.029 -0.026 -0.095   -0.020  0.016  0.055   -0.007 -0.039  0.009
 C         -0.064  0.000 -0.046    0.028  0.001  0.026   -0.006 -0.037  0.009
 H          0.029 -0.090 -0.390   -0.017  0.052  0.195    0.474  0.167  0.006
 H          0.030 -0.099 -0.393   -0.017  0.044  0.199   -0.398  0.287 -0.107
 H         -0.066  0.017  0.041    0.024  0.000  0.006   -0.394  0.285 -0.093
 H         -0.066  0.023  0.038    0.022 -0.007  0.002    0.470  0.160 -0.007
 O         -0.013 -0.087 -0.379    0.503 -0.095 -0.019   -0.001 -0.006  0.001
 C         -0.155  0.078  0.212    0.193  0.004  0.164    0.006  0.032 -0.007
 O         -0.317  0.063  0.024   -0.338 -0.050 -0.472   -0.002 -0.009  0.002
 O          0.426 -0.020  0.241   -0.378  0.123  0.234   -0.001 -0.009  0.002
 Li         0.118  0.034  0.239    0.140  0.001  0.112    0.000  0.001 -0.000
 TransDip  -0.261 -0.052 -0.425    0.315  0.033  0.385    0.010  0.056 -0.011

 Mode:                13                     14                     15
 Frequency:       831.31                 978.45                 990.47
 Force Cnst:      4.3711                 0.7068                 0.8101
 Red. Mass:      10.7354                 1.2530                 1.4015
 IR Active:          YES                    YES                    YES
 IR Intens:       33.935                233.912                425.896
 Raman Active:       YES                    YES                    YES
               X      Y      Z        X      Y      Z        X      Y      Z
 C          0.002  0.012 -0.003   -0.008  0.003  0.004   -0.021 -0.023 -0.111
 C          0.002  0.015 -0.003    0.017 -0.035 -0.142    0.015  0.016  0.081
 H         -0.188 -0.063  0.013   -0.004  0.066  0.270   -0.047  0.136  0.624
 H          0.158 -0.117  0.029    0.001  0.043  0.212   -0.047  0.179  0.684
 H          0.164 -0.120  0.036   -0.083  0.157  0.609    0.052 -0.043 -0.124
 H         -0.196 -0.067  0.007   -0.087  0.158  0.648    0.055 -0.044 -0.174
 O         -0.031 -0.171  0.040    0.004 -0.003 -0.007    0.040 -0.016 -0.038
 C          0.144  0.800 -0.188    0.002 -0.000  0.002   -0.020  0.003 -0.005
 O         -0.041 -0.227  0.053   -0.004  0.003  0.008   -0.042  0.019  0.050
 O         -0.039 -0.215  0.050    0.005 -0.003 -0.008    0.025 -0.016 -0.047
 Li         0.006  0.034 -0.008   -0.006  0.001 -0.002   -0.013  0.001 -0.004
 TransDip   0.032  0.179 -0.042    0.061  0.099  0.476    0.202  0.107  0.620

 Mode:                16                     17                     18
 Frequency:      1002.86                1056.30                1234.73
 Force Cnst:      0.6004                 5.1953                 1.3564
 Red. Mass:       1.0132                 7.9028                 1.5101
 IR Active:          YES                    YES                    YES
 IR Intens:        0.330                  6.707                  0.157
 Raman Active:       YES                    YES                    YES
               X      Y      Z        X      Y      Z        X      Y      Z
 C          0.002  0.014 -0.008   -0.005  0.025  0.106    0.024  0.145 -0.033
 C         -0.001 -0.002  0.010    0.010 -0.011 -0.039   -0.024 -0.145  0.033
 H         -0.049  0.129  0.571    0.013 -0.107 -0.500   -0.475 -0.077 -0.079
 H          0.043 -0.137 -0.530    0.009 -0.123 -0.493    0.430 -0.178  0.137
 H          0.034 -0.096 -0.440   -0.009  0.017  0.049   -0.436  0.193 -0.102
 H         -0.019  0.098  0.371   -0.007  0.009  0.048    0.486  0.074  0.042
 O          0.001 -0.008  0.001    0.359 -0.030  0.150   -0.000 -0.001  0.000
 C         -0.002 -0.003  0.000   -0.174  0.009 -0.096    0.001  0.001 -0.000
 O         -0.002  0.001  0.002   -0.268  0.109  0.258   -0.000 -0.001  0.000
 O          0.001  0.001 -0.002    0.030 -0.083 -0.333   -0.000 -0.000  0.000
 Li        -0.000  0.000 -0.000    0.014 -0.001  0.008   -0.000 -0.000 -0.000
 TransDip   0.009  0.015  0.005   -0.035 -0.011 -0.074    0.001 -0.012  0.004

 Mode:                19                     20                     21
 Frequency:      1308.62                1394.04                1459.38
 Force Cnst:      1.6094                 7.3585                 1.3980
 Red. Mass:       1.5951                 6.4267                 1.1141
 IR Active:          YES                    YES                    YES
 IR Intens:      473.545               1226.690                 22.584
 Raman Active:       YES                    YES                    YES
               X      Y      Z        X      Y      Z        X      Y      Z
 C         -0.141  0.025  0.008    0.025  0.002  0.026   -0.072  0.011 -0.005
 C          0.148 -0.020  0.018   -0.023  0.005  0.005   -0.064  0.009 -0.010
 H         -0.485 -0.122 -0.093    0.350  0.103 -0.069    0.434  0.207 -0.041
 H         -0.431  0.216 -0.172    0.294 -0.226  0.006    0.344 -0.328  0.082
 H          0.401 -0.198  0.124   -0.289  0.200 -0.116    0.370 -0.333  0.127
 H          0.446  0.096  0.058   -0.343 -0.129 -0.041    0.461  0.221 -0.000
 O         -0.028 -0.002 -0.030   -0.143  0.010 -0.069    0.000 -0.000  0.000
 C          0.070 -0.005  0.033    0.453  0.001  0.354   -0.001  0.002  0.006
 O         -0.022  0.007  0.013   -0.135  0.037  0.055    0.002 -0.001 -0.001
 O          0.001 -0.005 -0.021   -0.043 -0.052 -0.254   -0.000 -0.001 -0.003
 Li        -0.011  0.001 -0.005   -0.048  0.005 -0.015   -0.001  0.000  0.000
 TransDip   0.389  0.064  0.575    0.703  0.077  0.871    0.145 -0.014  0.045

 Mode:                22                     23                     24
 Frequency:      1568.81                1604.30                3154.76
 Force Cnst:      8.5633                 4.3973                 6.1783
 Red. Mass:       5.9054                 2.8998                 1.0536
 IR Active:          YES                    YES                    YES
 IR Intens:      487.978                417.430                 42.092
 Raman Active:       YES                    YES                    YES
               X      Y      Z        X      Y      Z        X      Y      Z
 C          0.152 -0.027 -0.005    0.241 -0.038  0.011    0.006 -0.001  0.000
 C         -0.145  0.019 -0.026   -0.241  0.031 -0.041    0.063 -0.009  0.010
 H         -0.342 -0.215  0.085   -0.337 -0.279  0.114   -0.044  0.113 -0.027
 H         -0.251  0.325 -0.037   -0.226  0.391 -0.040   -0.080 -0.096  0.020
 H          0.202 -0.273  0.093    0.233 -0.378  0.121   -0.439 -0.526  0.077
 H          0.282  0.209 -0.017    0.345  0.300 -0.034   -0.251  0.625 -0.185
 O          0.047 -0.003  0.022   -0.025  0.007  0.011   -0.000 -0.000 -0.001
 C         -0.272  0.147  0.419    0.147 -0.052 -0.107   -0.001  0.000 -0.000
 O          0.167 -0.064 -0.143   -0.077  0.026  0.053    0.000 -0.000  0.000
 O         -0.006 -0.044 -0.191   -0.012  0.010  0.033    0.000  0.000  0.000
 Li        -0.002  0.007  0.029    0.003 -0.003 -0.009   -0.000  0.000 -0.000
 TransDip  -0.651  0.169  0.221    0.159 -0.171 -0.611    0.138  0.012  0.155

 Mode:                25                     26                     27
 Frequency:      3179.60                3245.87                3280.09
 Force Cnst:      6.3110                 6.9411                 7.0952
 Red. Mass:       1.0595                 1.1182                 1.1193
 IR Active:          YES                    YES                    YES
 IR Intens:       70.693                  3.055                  3.758
 Raman Active:       YES                    YES                    YES
               X      Y      Z        X      Y      Z        X      Y      Z
 C          0.066 -0.010  0.001    0.005  0.033 -0.008   -0.015 -0.091  0.021
 C         -0.017  0.002 -0.003   -0.016 -0.091  0.021   -0.006 -0.033  0.007
 H         -0.254  0.628 -0.142    0.092 -0.218  0.051   -0.255  0.597 -0.140
 H         -0.450 -0.521  0.120   -0.157 -0.176  0.039    0.433  0.483 -0.107
 H          0.076  0.091 -0.013    0.433  0.500 -0.072    0.159  0.182 -0.025
 H          0.044 -0.107  0.032   -0.247  0.583 -0.173   -0.091  0.212 -0.065
 O         -0.000  0.000  0.001   -0.000 -0.000  0.000    0.000  0.000 -0.000
 C          0.002 -0.000 -0.000    0.000  0.000 -0.000   -0.000 -0.000  0.000
 O         -0.000  0.000  0.001   -0.000 -0.000  0.000    0.000  0.000 -0.000
 O         -0.001  0.000 -0.000   -0.000 -0.000  0.000   -0.000 -0.000  0.000
 Li         0.000 -0.000 -0.000   -0.000 -0.000  0.000    0.000  0.000 -0.000
 TransDip  -0.081 -0.044 -0.253   -0.010 -0.054  0.011   -0.010 -0.060  0.012

 STANDARD THERMODYNAMIC QUANTITIES AT   298.15 K  AND     1.00 ATM

   This Molecule has  1 Imaginary Frequencies
   Zero point vibrational energy:       42.978 kcal/mol

   Atom    1 Element C  Has Mass   12.00000
   Atom    2 Element C  Has Mass   12.00000
   Atom    3 Element H  Has Mass    1.00783
   Atom    4 Element H  Has Mass    1.00783
   Atom    5 Element H  Has Mass    1.00783
   Atom    6 Element H  Has Mass    1.00783
   Atom    7 Element O  Has Mass   15.99491
   Atom    8 Element C  Has Mass   12.00000
   Atom    9 Element O  Has Mass   15.99491
   Atom   10 Element O  Has Mass   15.99491
   Atom   11 Element Li Has Mass    7.01600
   Molecular Mass:    95.032050 amu
   Principal axes and moments of inertia in amu*Bohr^2:
                             1           2           3
    Eigenvalues --      214.43991  1143.10795  1332.87161
          X               0.63668     0.75170     0.17200
          Y               0.06519    -0.27472     0.95931
          Z               0.76837    -0.59956    -0.22391
   Rotational Symmetry Number is   1
   The Molecule is an Asymmetric Top
   Translational Enthalpy:        0.889 kcal/mol
   Rotational Enthalpy:           0.889 kcal/mol
   Vibrational Enthalpy:         46.270 kcal/mol
   gas constant (RT):             0.592 kcal/mol
   Translational Entropy:        39.566  cal/mol.K
   Rotational Entropy:           27.282  cal/mol.K
   Vibrational Entropy:          22.873  cal/mol.K

   Total Enthalpy:               48.640 kcal/mol
   Total Entropy:                89.721  cal/mol.K
Archival summary:
1\1\nid00767\FREQ\ProcedureUnspecified\BasisUnspecified\33i14(2)\ewcss\MonMar2320:26:212020MonMar2320:26:212020\0\\#,FREQ,ProcedureUnspecified,BasisUnspecified,\\0,2\O\C,1,1.32332\O,2,1.26093,1,123.04\O,2,1.26975,1,114.071,3,-179.986,0\Li,3,1.90072,2,83.1397,1,-179.915,0\C,1,2.22825,2,108.616,3,-0.230151,0\H,6,1.08319,1,90.9104,2,57.9013,0\H,6,1.08327,1,90.712,2,-59.0935,0\C,6,1.34936,1,97.742,2,179.423,0\H,9,1.0858,6,121.286,1,-88.8527,0\H,9,1.08581,6,121.287,1,88.5202,0\\\@

 Total job time:  5694.72s(wall), 145778.73s(cpu) 
 Mon Mar 23 20:26:21 2020

        *************************************************************
        *                                                           *
        *  Thank you very much for using Q-Chem.  Have a nice day.  *
        *                                                           *
        *************************************************************


