
Running Job 1 of 1 mol.qin
qchem mol.qin_199823.0 /tmp/scratch/ 0
/clusterfs/mp/software/qchem/exe/qcprog.exe_s mol.qin_199823.0 /tmp/scratch/
                  Welcome to Q-Chem
     A Quantum Leap Into The Future Of Chemistry


 Q-Chem 5.2, Q-Chem, Inc., Pleasanton, CA (2019)

 Yihan Shao,  Zhengting Gan,  E. Epifanovsky,  A. T. B. Gilbert,  M. Wormit,  
 J. Kussmann,  A. W. Lange,  A. Behn,  Jia Deng,  Xintian Feng,  D. Ghosh,  
 M. Goldey,  P. R. Horn,  L. D. Jacobson,  I. Kaliman,  T. Kus,  A. Landau,  
 Jie Liu,  E. I. Proynov,  R. M. Richard,  R. P. Steele,  E. J. Sundstrom,  
 H. L. Woodcock III,  P. M. Zimmerman,  D. Zuev,  B. Alam,  B. Albrecht,  
 E. Alguire,  S. A. Baeppler,  D. Barton,  Z. Benda,  Y. A. Bernard,  
 E. J. Berquist,  K. B. Bravaya,  H. Burton,  K. Carter-Fenk,  D. Casanova,  
 Chun-Min Chang,  Yunqing Chen,  A. Chien,  K. D. Closser,  M. P. Coons,  
 S. Coriani,  S. Dasgupta,  A. L. Dempwolff,  M. Diedenhofen,  Hainam Do,  
 R. G. Edgar,  Po-Tung Fang,  S. Faraji,  S. Fatehi,  Qingguo Feng,  
 J. Fosso-Tande,  J. Gayvert,  Qinghui Ge,  A. Ghysels,  G. Gidofalvi,  
 J. Gomes,  J. Gonthier,  A. Gunina,  D. Hait,  M. W. D. Hanson-Heine,  
 P. H. P. Harbach,  A. W. Hauser,  M. F. Herbst,  J. E. Herr,  
 E. G. Hohenstein,  Z. C. Holden,  Kerwin Hui,  B. C. Huynh,  T.-C. Jagau,  
 Hyunjun Ji,  B. Kaduk,  K. Khistyaev,  Jaehoon Kim,  P. Klunzinger,  K. Koh,  
 D. Kosenkov,  L. Koulias,  T. Kowalczyk,  C. M. Krauter,  A. Kunitsa,  
 Ka Un Lao,  A. Laurent,  K. V. Lawler,  Joonho Lee,  D. Lefrancois,  
 S. Lehtola,  D. S. Levine,  Yi-Pei Li,  You-Sheng Lin,  Fenglai Liu,  
 Kuan-Yu Liu,  E. Livshits,  M. Loipersberger,  A. Luenser,  P. Manohar,  
 E. Mansoor,  S. F. Manzer,  Shan-Ping Mao,  Yuezhi Mao,  N. Mardirossian,  
 A. V. Marenich,  T. Markovich,  L. A. Martinez-Martinez,  S. A. Maurer,  
 N. J. Mayhall,  S. C. McKenzie,  J.-M. Mewes,  P. Morgante,  A. F. Morrison,  
 J. W. Mullinax,  K. Nanda,  T. S. Nguyen-Beck,  R. Olivares-Amaya,  
 J. A. Parkhill,  S. K. Paul,  Zheng Pei,  T. M. Perrine,  F. Plasser,  
 P. Pokhilko,  S. Prager,  A. Prociuk,  E. Ramos,  B. Rana,  D. R. Rehn,  
 F. Rob,  M. Scheurer,  M. Schneider,  N. Sergueev,  S. M. Sharada,  
 S. Sharma,  D. W. Small,  T. Stauch,  C. J. Stein,  T. Stein,  Yu-Chuan Su,  
 S. P. Veccham,  A. J. W. Thom,  A. Tkatchenko,  T. Tsuchimochi,  
 N. M. Tubman,  L. Vogt,  M. L. Vidal,  O. Vydrov,  M. A. Watson,  J. Wenzel,  
 M. de Wergifosse,  T. A. Wesolowski,  A. White,  J. Witte,  A. Yamada,  
 Jun Yang,  K. Yao,  S. Yeganeh,  S. R. Yost,  Zhi-Qiang You,  A. Zech,  
 Igor Ying Zhang,  Xing Zhang,  Yan Zhao,  Ying Zhu,  B. R. Brooks,  
 G. K. L. Chan,  C. J. Cramer,  M. S. Gordon,  W. J. Hehre,  A. Klamt,  
 M. W. Schmidt,  C. D. Sherrill,  D. G. Truhlar,  A. Aspuru-Guzik,  R. Baer,  
 A. T. Bell,  N. A. Besley,  Jeng-Da Chai,  A. E. DePrince, III,  
 R. A. DiStasio Jr.,  A. Dreuw,  B. D. Dunietz,  T. R. Furlani,  
 Chao-Ping Hsu,  Yousung Jung,  Jing Kong,  D. S. Lambrecht,  WanZhen Liang,  
 C. Ochsenfeld,  V. A. Rassolov,  L. V. Slipchenko,  J. E. Subotnik,  
 T. Van Voorhis,  J. M. Herbert,  A. I. Krylov,  P. M. W. Gill,  M. Head-Gordon

 Contributors to earlier versions of Q-Chem not listed above: 
 R. D. Adamson,  B. Austin,  J. Baker,  G. J. O. Beran,  K. Brandhorst,  
 S. T. Brown,  E. F. C. Byrd,  A. K. Chakraborty,  C.-L. Cheng,  
 Siu Hung Chien,  D. M. Chipman,  D. L. Crittenden,  H. Dachsel,  
 R. J. Doerksen,  A. D. Dutoi,  L. Fusti-Molnar,  W. A. Goddard III,  
 A. Golubeva-Zadorozhnaya,  S. R. Gwaltney,  G. Hawkins,  A. Heyden,  
 S. Hirata,  G. Kedziora,  F. J. Keil,  C. Kelley,  Jihan Kim,  R. A. King,  
 R. Z. Khaliullin,  P. P. Korambath,  W. Kurlancheek,  A. M. Lee,  M. S. Lee,  
 S. V. Levchenko,  Ching Yeh Lin,  D. Liotard,  R. C. Lochan,  I. Lotan,  
 P. E. Maslen,  N. Nair,  D. P. O'Neill,  D. Neuhauser,  E. Neuscamman,  
 C. M. Oana,  R. Olson,  B. Peters,  R. Peverati,  P. A. Pieniazek,  
 Y. M. Rhee,  J. Ritchie,  M. A. Rohrdanz,  E. Rosta,  N. J. Russ,  
 H. F. Schaefer III,  N. E. Schultz,  N. Shenvi,  A. C. Simmonett,  A. Sodt,  
 D. Stuck,  K. S. Thanthiriwatte,  V. Vanovschi,  Tao Wang,  A. Warshel,  
 C. F. Williams,  Q. Wu,  X. Xu,  W. Zhang

 Please cite Q-Chem as follows:
 Y. Shao et al., Mol. Phys. 113, 184-215 (2015)
 DOI: 10.1080/00268976.2014.952696

 Q-Chem 5.2.2 for Intel X86 EM64T Linux

 Parts of Q-Chem use Armadillo 8.300.2 (Tropical Shenanigans).
 http://arma.sourceforge.net/

 Q-Chem begins on Wed May 20 07:58:19 2020  

Host: 
0

     Scratch files written to /tmp/scratch//
 Nov2519 |scratch|qcdevops|jenkins|workspace|build_RNUM 6829   
Processing $rem in /clusterfs/mp/software/qchem/config/preferences:
	 MEM_TOTAL  96000 
NAlpha2: 50
NElect   50
Mult     1
Symmetry turned off for PCM/SM12/SMD calculation

Checking the input file for inconsistencies... 	...done.

--------------------------------------------------------------
User input:
--------------------------------------------------------------
$molecule
-1 1
O      0.5331928974      0.5145403116     -0.4445448826
C     -0.7021949805     -0.0476091126     -0.6748708300
C      1.4294954636      0.0651473345      0.7914634320
O     -1.2340004762      0.4653456164     -1.7224510113
O     -1.1581790789     -0.9152050640      0.0688352562
C      2.6815238287      0.7733552699      0.8454354344
H      1.4982004116     -1.0093803527      0.6079576934
H      0.7385603195      0.2540299481      1.6162200839
H      2.8027417246      1.5667990981      1.5816234967
H      3.5908409740      0.2537552510      0.5469833434
Li      0.2601087500      1.5474984308     -1.9566317506
$end

$rem
job_type = freq
basis = def2-tzvppd
max_scf_cycles = 200
gen_scfman = true
xc_grid = 3
scf_algorithm = diis
resp_charges = true
symmetry = false
sym_ignore = true
method = wb97xv
solvent_method = smd
ideriv = 1
thresh = 14
$end

$smx
solvent other
$end
--------------------------------------------------------------
 ----------------------------------------------------------------
             Standard Nuclear Orientation (Angstroms)
    I     Atom           X                Y                Z
 ----------------------------------------------------------------
    1      O       0.5331928974     0.5145403116    -0.4445448826
    2      C      -0.7021949805    -0.0476091126    -0.6748708300
    3      C       1.4294954636     0.0651473345     0.7914634320
    4      O      -1.2340004762     0.4653456164    -1.7224510113
    5      O      -1.1581790789    -0.9152050640     0.0688352562
    6      C       2.6815238287     0.7733552699     0.8454354344
    7      H       1.4982004116    -1.0093803527     0.6079576934
    8      H       0.7385603195     0.2540299481     1.6162200839
    9      H       2.8027417246     1.5667990981     1.5816234967
   10      H       3.5908409740     0.2537552510     0.5469833434
   11      Li      0.2601087500     1.5474984308    -1.9566317506
 ----------------------------------------------------------------
 Nuclear Repulsion Energy =         249.47405043 hartrees
 There are       25 alpha and       25 beta electrons
 Requested basis set is def2-TZVPPD
 There are 119 shells and 321 basis functions

 Total QAlloc Memory Limit  96000 MB
 Mega-Array Size       188 MB
 MEM_STATIC part       192 MB
 
 Citation of the SMD model:
 Marenich, A.V.; Cramer, C.J.; Truhlar, D.G.
 J. Phys. Chem. B 2009, 113, 6378-6396.
 iSolventCode=           0
 Solvent: other                                                           
 
 vradii
            1           2           3           4           5           6
    1   2.2940000   1.8500000   1.8500000   2.2940000   2.2940000   1.8500000
            7           8           9          10          11
    1   1.2000000   1.2000000   1.2000000   1.2000000   2.1476001
 Changing PCM_VDW_RADII to SMD_RADIUS
 Discretize the solute cavity surface with Lebedev spheres
	Using 110 Lebedev grid points for each H atom
	Using 194 Lebedev grid points for other atoms
	Atomic van der Waals radii will be scaled by 1.20
 Remove points where switching function is < 1.0e-08
 Keep 811 surface tesserae and discard 987 interior tesserae
 Molecular Surface Area = 159.549 Angst**2

                       Distance Matrix (Angstroms)
             O (  1)   C (  2)   C (  3)   O (  4)   O (  5)   C (  6)
   C (  2)  1.376679
   C (  3)  1.591549  2.589779
   O (  4)  2.181384  1.281938  3.684309
   O (  5)  2.273427  1.230343  2.859955  2.262825
   C (  6)  2.519198  3.799324  1.439460  4.692573  4.265872
   H (  7)  2.088381  2.722571  1.092247  3.882080  2.712171  2.152858
   H (  8)  2.087293  2.723208  1.092379  3.883603  2.712772  2.153814
   H (  9)  3.219233  4.470197  2.182915  5.331547  4.913020  1.089137
   H ( 10)  3.224957  4.473690  2.183291  5.336122  4.914090  1.088997
   Li( 11)  1.851482  2.261262  3.334195  1.859639  3.489837  3.783402
             H (  7)   H (  8)   H (  9)   H ( 10)
   H (  8)  1.786016
   H (  9)  3.047385  2.446509
   H ( 10)  2.445071  3.046108  1.848152
   Li( 11)  3.827221  3.829784  4.357133  4.362985
 
 A cutoff of  1.0D-14 yielded   6743 shell pairs
 There are     49535 function pairs (     63025 Cartesian)
 Smallest overlap matrix eigenvalue = 1.05E-05
 Guess from superposition of atomic densities
 Warning:  Energy on first SCF cycle will be non-variational
 SAD guess density has 49.000000 electrons

 -----------------------------------------------------------------------
  General SCF calculation program by
  Eric Jon Sundstrom, Paul Horn, Yuezhi Mao, Dmitri Zuev, Alec White,
  David Stuck, Shaama M.S., Shane Yost, Joonho Lee, David Small,
  Daniel Levine, Susi Lehtola, Hugh Burton, Evgeny Epifanovsky,
  Bang C. Huynh
 -----------------------------------------------------------------------
 Exchange:     0.1670 Hartree-Fock + 1.0000 wB97X-V + LR-HF
 Correlation:  1.0000 wB97X-V
 Using SG-3 standard quadrature grid
 Nonlocal Correlation:  VV10 with C = 0.0100 and b = 6.00 and scale = 1.00000
 Grid used for NLC:  SG-1 standard quadrature
 
 Citation of the SMD model:
 Marenich, A.V.; Cramer, C.J.; Truhlar, D.G.
 J. Phys. Chem. B 2009, 113, 6378-6396.
 iSolventCode=           0
 Solvent: other                                                           
 
 vradii
            1           2           3           4           5           6
    1   2.2940000   1.8500000   1.8500000   2.2940000   2.2940000   1.8500000
            7           8           9          10          11
    1   1.2000000   1.2000000   1.2000000   1.2000000   2.1476001
 using 32 threads for integral computing
 -------------------------------------------------------
 OpenMP Integral computing Module                
 Release: version 1.0, May 2013, Q-Chem Inc. Pittsburgh 
 -------------------------------------------------------
 using 32 threads for integral computing
 -------------------------------------------------------
 OpenMP Integral computing Module                
 Release: version 1.0, May 2013, Q-Chem Inc. Pittsburgh 
 -------------------------------------------------------
 -------------------------------------------------------
 OpenMP BLAS3 based DFT computing Module                
 Release: version 1.0, May 2013, Q-Chem Inc. Pittsburgh 
 -------------------------------------------------------
 -------------------------------------------------------
 OpenMP BLAS3 based DFT computing Module                
 Release: version 1.0, May 2013, Q-Chem Inc. Pittsburgh 
 -------------------------------------------------------
 -------------------------------------------------------
 OpenMP BLAS3 based DFT computing Module                
 Release: version 1.0, May 2013, Q-Chem Inc. Pittsburgh 
 -------------------------------------------------------
 A restricted SCF calculation will be
 performed using DIIS
 SCF converges when DIIS error is below 1.0e-08
 ---------------------------------------
  Cycle       Energy         DIIS error
 ---------------------------------------
    1    -350.7899805346      2.40e-02  
    2    -349.8376025522      4.94e-03  
    3    -349.8855988377      5.04e-03  
    4    -350.0949842111      3.32e-04  
    5    -350.0963276917      1.80e-04  
    6    -350.0967778008      6.23e-05  
    7    -350.0968527035      2.92e-05  
    8    -350.0968770465      1.09e-05  
    9    -350.0968839145      4.28e-06  
   10    -350.0968849968      1.38e-06  
   11    -350.0968851464      4.57e-07  
   12    -350.0968851684      2.45e-07  
   13    -350.0968851713      1.46e-07  
   14    -350.0968851722      3.91e-08  
   15    -350.0968851723      1.75e-08  
   16    -350.0968851724      4.65e-09  Convergence criterion met
 ---------------------------------------
 SCF time:   CPU 1432.91s  wall 51.00s 
(3)  G-ENP(liq) elect-nuc-pol free energy of system     -350.096885172 a.u.
(4)  G-CDS(liq) cavity-dispersion-solvent structure 
     free energy                                               -1.5787 kcal/mol
(6)  G-S(liq) free energy of system                     -350.099400939 a.u.
 SCF   energy in the final basis set =     -350.0968851724
 Total energy in the final basis set =     -350.0994009391
 
 --------------------------------------------------------------
 
                    Orbital Energies (a.u.)
 --------------------------------------------------------------
 
 Alpha MOs
 -- Occupied --
-19.1846 -19.1368 -19.1322 -10.3695 -10.2751 -10.1698  -2.0689  -1.1822
 -1.0712  -1.0547  -0.8288  -0.6735  -0.6133  -0.5525  -0.5513  -0.5268
 -0.5047  -0.4615  -0.4258  -0.4152  -0.3731  -0.3602  -0.3446  -0.3296
 -0.2252
 -- Virtual --
  0.0408   0.0562   0.0584   0.0655   0.0995   0.1124   0.1195   0.1343
  0.1351   0.1442   0.1510   0.1569   0.1613   0.1675   0.1824   0.1831
  0.1931   0.1958   0.2068   0.2112   0.2128   0.2224   0.2345   0.2655
  0.2830   0.2843   0.2947   0.3008   0.3098   0.3142   0.3224   0.3412
  0.3483   0.3565   0.3608   0.3733   0.3775   0.3827   0.3952   0.3979
  0.4015   0.4128   0.4306   0.4344   0.4385   0.4418   0.4463   0.4511
  0.4532   0.4702   0.4749   0.4771   0.4828   0.5064   0.5090   0.5091
  0.5158   0.5336   0.5361   0.5519   0.5523   0.5628   0.5714   0.5817
  0.5841   0.5944   0.6042   0.6136   0.6321   0.6478   0.6517   0.6623
  0.6760   0.6876   0.7039   0.7086   0.7251   0.7423   0.7519   0.7652
  0.7759   0.7819   0.7884   0.7920   0.8107   0.8184   0.8240   0.8429
  0.8457   0.8629   0.8675   0.8867   0.8950   0.9038   0.9292   0.9376
  0.9580   0.9912   0.9937   1.0090   1.0477   1.0603   1.0622   1.0734
  1.1042   1.1394   1.1579   1.1651   1.1952   1.2203   1.2249   1.2411
  1.2468   1.2555   1.2911   1.2941   1.3210   1.3386   1.3417   1.3533
  1.3721   1.3956   1.4336   1.4581   1.4673   1.5017   1.5262   1.5530
  1.5655   1.6132   1.6534   1.6646   1.6841   1.7401   1.7429   1.7828
  1.7837   1.8759   1.9037   1.9130   1.9335   1.9438   1.9670   1.9818
  2.0027   2.0252   2.0648   2.0747   2.1481   2.1731   2.1882   2.2518
  2.2691   2.2814   2.3110   2.3490   2.3726   2.4267   2.4608   2.5198
  2.5333   2.5912   2.6525   2.6610   2.6965   2.7901   2.8339   2.9054
  2.9086   2.9642   2.9774   2.9917   3.0067   3.0353   3.0589   3.0605
  3.0756   3.0812   3.2023   3.2032   3.2544   3.2594   3.2757   3.2823
  3.3102   3.3219   3.3680   3.3886   3.3992   3.4241   3.4592   3.4655
  3.4844   3.5338   3.5369   3.5487   3.5658   3.5707   3.5997   3.6190
  3.6381   3.6487   3.6586   3.6773   3.7122   3.7306   3.7459   3.7919
  3.8621   3.8723   3.9079   3.9375   4.0111   4.0484   4.0675   4.1324
  4.1617   4.1810   4.2313   4.2445   4.2742   4.3080   4.3400   4.3633
  4.4220   4.4431   4.5073   4.5628   4.6956   4.7338   4.7723   4.8153
  4.8730   4.8799   4.8990   4.9293   5.0769   5.1097   5.1140   5.1433
  5.2130   5.3091   5.3094   5.3343   5.3683   5.3736   5.4049   5.4340
  5.4843   5.5331   5.5702   5.5932   5.6214   5.6360   5.6564   5.7259
  5.7419   5.7520   5.8173   5.8738   5.9129   6.0035   6.0049   6.0782
  6.1457   6.2593   6.3139   6.3291   6.3633   6.3738   6.4279   6.6174
  6.6369   6.6747   6.7316   6.7361   6.7852   6.8950   6.9130   6.9628
  7.0315   7.0943   7.1647   7.2796   7.3725   7.4735   7.5173   7.6556
  7.7475  15.1093  23.3639  23.6827  23.8891  44.2535  44.4016  44.5147
 --------------------------------------------------------------
 
          Ground-State Mulliken Net Atomic Charges

     Atom                 Charge (a.u.)
  ----------------------------------------
      1 O                    -0.426806
      2 C                     0.520646
      3 C                     0.351073
      4 O                    -0.799838
      5 O                    -0.600027
      6 C                    -1.390440
      7 H                     0.114666
      8 H                     0.116265
      9 H                     0.154737
     10 H                     0.154949
     11 Li                    0.804777
  ----------------------------------------
  Sum of atomic charges =    -1.000000

  Building new vdw surfaces
         Merz-Kollman RESP Net Atomic Charges

     Atom                 Charge (a.u.)
  ----------------------------------------
      1 O                    -0.453045
      2 C                     0.855530
      3 C                     0.575195
      4 O                    -0.845468
      5 O                    -0.783887
      6 C                    -1.978964
      7 H                     0.022113
      8 H                     0.022113
      9 H                     0.408540
     10 H                     0.408540
     11 Li                    0.769335
  ----------------------------------------
  Sum of atomic charges =    -1.000000

  Related Dipole Moment =     5.0257 (X -2.4685 Y  2.2805 Z -3.7369)

 -----------------------------------------------------------------
                    Cartesian Multipole Moments
 -----------------------------------------------------------------
    Charge (ESU x 10^10)
                -4.8032
    Dipole Moment (Debye)
         X      -2.5842      Y       2.3401      Z      -3.9054
       Tot       5.2351
    Quadrupole Moments (Debye-Ang)
        XX     -75.0519     XY      -9.8444     YY     -39.6437
        XZ     -13.6351     YZ      -8.2195     ZZ     -39.0414
    Octopole Moments (Debye-Ang^2)
       XXX    -117.9277    XXY     -32.7221    XYY     -24.5308
       YYY     -17.0076    XXZ      -4.0391    XYZ      -8.0499
       YYZ     -13.3769    XZZ     -13.6478    YZZ      10.5697
       ZZZ      -3.1963
    Hexadecapole Moments (Debye-Ang^3)
      XXXX    -913.7445   XXXY    -150.3643   XXYY    -181.3318
      XYYY     -95.9397   YYYY    -152.4385   XXXZ    -194.3681
      XXYZ       5.3840   XYYZ     -49.8646   YYYZ     -21.7106
      XXZZ    -215.6309   XYZZ     -13.0840   YYZZ     -35.3801
      XZZZ    -181.8597   YZZZ     -32.0222   ZZZZ    -269.6785
 -----------------------------------------------------------------
 Calculating analytic gradient of the SCF energy
 Gradient of CDS energy
            1           2           3           4           5           6
    1   0.0001919  -0.0012919  -0.0005524   0.0006472   0.0006578   0.0013744
    2   0.0000586  -0.0006656  -0.0005881   0.0008165  -0.0002448   0.0006859
    3   0.0000635  -0.0001324   0.0003226  -0.0005394   0.0008028   0.0001784
            7           8           9          10          11
    1  -0.0002922  -0.0001704  -0.0000923  -0.0002578  -0.0002143
    2   0.0001456  -0.0000612  -0.0002072   0.0000646  -0.0000045
    3  -0.0001438  -0.0003106  -0.0001515   0.0000636  -0.0001531
 Gradient of SCF Energy
            1           2           3           4           5           6
    1  -0.0089944  -0.0100116  -0.0040975   0.0011609   0.0103722   0.0473995
    2  -0.0020661  -0.0127330  -0.0728278  -0.0078988   0.0213103   0.0462953
    3  -0.0040282   0.0081491   0.0886195   0.0109929  -0.0188376  -0.0222216
            7           8           9          10          11
    1  -0.0036904   0.0256556  -0.0098144  -0.0500285   0.0020484
    2   0.0310884  -0.0175840  -0.0296478   0.0374404   0.0066233
    3   0.0188762  -0.0194049  -0.0544413  -0.0008847  -0.0068193
 Max gradient component =       8.862E-02
 RMS gradient           =       3.026E-02
 Computing fast CPCM-SWIG gradient
 Updating gradient with PCM contributions...
 -- total gradient after adding PCM contribution --
---------------------------------------------------
  Atom         X              Y              Z     
---------------------------------------------------
   1       0.000045       0.000153      -0.000130
   2       0.000012      -0.000044       0.000086
   3      -0.000146      -0.000085      -0.000030
   4      -0.000001      -0.000050       0.000051
   5       0.000030      -0.000034       0.000057
   6      -0.000006       0.000045      -0.000051
   7       0.000034      -0.000014       0.000023
   8       0.000020       0.000011       0.000025
   9       0.000007       0.000021      -0.000018
  10       0.000010       0.000013      -0.000014
  11      -0.000006      -0.000015       0.000001
---------------------------------------------------
 Number of fixed atoms: 0
 Gradient time:  CPU 251.20 s  wall 10.82 s
 ######################################################
 ######################################################
 # Starting finite difference calculation for IDERIV  #
 Finite diff step size:  1.88973e-03 a.u.
 ----------------------------------------------------------------
             Standard Nuclear Orientation (Angstroms)
    I     Atom           X                Y                Z
 ----------------------------------------------------------------
    1      O       0.5341928974     0.5145403116    -0.4445448826
    2      C      -0.7021949805    -0.0476091126    -0.6748708300
    3      C       1.4294954636     0.0651473345     0.7914634320
    4      O      -1.2340004762     0.4653456164    -1.7224510113
    5      O      -1.1581790789    -0.9152050640     0.0688352562
    6      C       2.6815238287     0.7733552699     0.8454354344
    7      H       1.4982004116    -1.0093803527     0.6079576934
    8      H       0.7385603195     0.2540299481     1.6162200839
    9      H       2.8027417246     1.5667990981     1.5816234967
   10      H       3.5908409740     0.2537552510     0.5469833434
   11      Li      0.2601087500     1.5474984308    -1.9566317506
 ----------------------------------------------------------------
 Nuclear Repulsion Energy =         249.46112385 hartrees
 There are       25 alpha and       25 beta electrons
 Discretize the solute cavity surface with Lebedev spheres
	Using 110 Lebedev grid points for each H atom
	Using 194 Lebedev grid points for other atoms
	Atomic van der Waals radii will be scaled by 1.20
 Remove points where switching function is < 1.0e-08
 Keep 811 surface tesserae and discard 987 interior tesserae
 Molecular Surface Area = 159.550 Angst**2

                       Distance Matrix (Angstroms)
             O (  1)   C (  2)   C (  3)   O (  4)   O (  5)   C (  6)
   C (  2)  1.377576
   C (  3)  1.590986  2.589779
   O (  4)  2.182194  1.281938  3.684309
   O (  5)  2.274171  1.230343  2.859955  2.262825
   C (  6)  2.518346  3.799324  1.439460  4.692573  4.265872
   H (  7)  2.087919  2.722571  1.092247  3.882080  2.712171  2.152858
   H (  8)  2.087195  2.723208  1.092379  3.883603  2.712772  2.153814
   H (  9)  3.218528  4.470197  2.182915  5.331547  4.913020  1.089137
   H ( 10)  3.224009  4.473690  2.183291  5.336122  4.914090  1.088997
   Li( 11)  1.851629  2.261262  3.334195  1.859639  3.489837  3.783402
             H (  7)   H (  8)   H (  9)   H ( 10)
   H (  8)  1.786016
   H (  9)  3.047385  2.446509
   H ( 10)  2.445071  3.046108  1.848152
   Li( 11)  3.827221  3.829784  4.357133  4.362985
 
 Requested basis set is def2-TZVPPD
 There are 119 shells and 321 basis functions
 A cutoff of  1.0D-14 yielded   6743 shell pairs
 There are     49535 function pairs (     63025 Cartesian)
 Smallest overlap matrix eigenvalue = 1.05E-05
 Guess MOs from SCF MO coefficient file

 -----------------------------------------------------------------------
  General SCF calculation program by
  Eric Jon Sundstrom, Paul Horn, Yuezhi Mao, Dmitri Zuev, Alec White,
  David Stuck, Shaama M.S., Shane Yost, Joonho Lee, David Small,
  Daniel Levine, Susi Lehtola, Hugh Burton, Evgeny Epifanovsky,
  Bang C. Huynh
 -----------------------------------------------------------------------
 Exchange:     0.1670 Hartree-Fock + 1.0000 wB97X-V + LR-HF
 Correlation:  1.0000 wB97X-V
 Using SG-3 standard quadrature grid
 Nonlocal Correlation:  VV10 with C = 0.0100 and b = 6.00 and scale = 1.00000
 Grid used for NLC:  SG-1 standard quadrature
 
 Citation of the SMD model:
 Marenich, A.V.; Cramer, C.J.; Truhlar, D.G.
 J. Phys. Chem. B 2009, 113, 6378-6396.
 iSolventCode=           0
 Solvent: other                                                           
 
 vradii
            1           2           3           4           5           6
    1   2.2940000   1.8500000   1.8500000   2.2940000   2.2940000   1.8500000
            7           8           9          10          11
    1   1.2000000   1.2000000   1.2000000   1.2000000   2.1476001
 using 32 threads for integral computing
 -------------------------------------------------------
 OpenMP Integral computing Module                
 Release: version 1.0, May 2013, Q-Chem Inc. Pittsburgh 
 -------------------------------------------------------
 using 32 threads for integral computing
 -------------------------------------------------------
 OpenMP Integral computing Module                
 Release: version 1.0, May 2013, Q-Chem Inc. Pittsburgh 
 -------------------------------------------------------
 -------------------------------------------------------
 OpenMP BLAS3 based DFT computing Module                
 Release: version 1.0, May 2013, Q-Chem Inc. Pittsburgh 
 -------------------------------------------------------
 -------------------------------------------------------
 OpenMP BLAS3 based DFT computing Module                
 Release: version 1.0, May 2013, Q-Chem Inc. Pittsburgh 
 -------------------------------------------------------
 -------------------------------------------------------
 OpenMP BLAS3 based DFT computing Module                
 Release: version 1.0, May 2013, Q-Chem Inc. Pittsburgh 
 -------------------------------------------------------
 A restricted SCF calculation will be
 performed using Roothaan-Hall, DIIS
 SCF converges when DIIS error is below 1.0e-08
 ---------------------------------------
  Cycle       Energy         DIIS error
 ---------------------------------------
    1    -342.7785545003      3.04e-04  Roothaan Step
 ---------------------------------------
  Cycle       Energy         DIIS error
 ---------------------------------------
    1    -350.0932623068      3.74e-04  
    2    -350.0954017654      3.56e-04  
    3    -350.0967470510      7.32e-05  
    4    -350.0968424969      4.33e-05  
    5    -350.0968776308      1.32e-05  
    6    -350.0968838054      3.49e-06  
    7    -350.0968847161      1.76e-06  
    8    -350.0968848596      8.63e-07  
    9    -350.0968848961      3.94e-07  
   10    -350.0968849023      1.50e-07  
   11    -350.0968849037      8.16e-08  
   12    -350.0968849040      2.99e-08  
   13    -350.0968849041      7.18e-09  Convergence criterion met
 ---------------------------------------
 SCF time:   CPU 1296.68s  wall 46.00s 
(3)  G-ENP(liq) elect-nuc-pol free energy of system     -350.096884904 a.u.
(4)  G-CDS(liq) cavity-dispersion-solvent structure 
     free energy                                               -1.5784 kcal/mol
(6)  G-S(liq) free energy of system                     -350.099400307 a.u.
 SCF   energy in the final basis set =     -350.0968849041
 Total energy in the final basis set =     -350.0994003073
 
 --------------------------------------------------------------
 
                    Orbital Energies (a.u.)
 --------------------------------------------------------------
 
 Alpha MOs
 -- Occupied --
-19.1846 -19.1369 -19.1324 -10.3696 -10.2750 -10.1697  -2.0690  -1.1821
 -1.0712  -1.0548  -0.8287  -0.6734  -0.6133  -0.5525  -0.5514  -0.5268
 -0.5047  -0.4615  -0.4258  -0.4152  -0.3731  -0.3602  -0.3447  -0.3297
 -0.2252
 -- Virtual --
  0.0408   0.0562   0.0584   0.0655   0.0995   0.1124   0.1195   0.1343
  0.1351   0.1442   0.1510   0.1569   0.1613   0.1675   0.1824   0.1831
  0.1931   0.1957   0.2068   0.2112   0.2128   0.2223   0.2345   0.2655
  0.2830   0.2843   0.2947   0.3008   0.3098   0.3142   0.3224   0.3412
  0.3483   0.3564   0.3608   0.3733   0.3775   0.3827   0.3952   0.3979
  0.4015   0.4128   0.4306   0.4344   0.4386   0.4417   0.4463   0.4510
  0.4531   0.4702   0.4748   0.4771   0.4827   0.5063   0.5090   0.5091
  0.5158   0.5336   0.5360   0.5518   0.5523   0.5627   0.5714   0.5816
  0.5841   0.5944   0.6042   0.6136   0.6320   0.6477   0.6517   0.6623
  0.6759   0.6876   0.7039   0.7085   0.7251   0.7423   0.7519   0.7652
  0.7758   0.7819   0.7883   0.7920   0.8107   0.8184   0.8240   0.8429
  0.8457   0.8629   0.8675   0.8866   0.8950   0.9038   0.9292   0.9376
  0.9580   0.9913   0.9936   1.0089   1.0477   1.0602   1.0621   1.0733
  1.1042   1.1394   1.1579   1.1651   1.1953   1.2204   1.2249   1.2411
  1.2468   1.2556   1.2911   1.2940   1.3210   1.3386   1.3417   1.3533
  1.3721   1.3956   1.4336   1.4580   1.4673   1.5015   1.5261   1.5530
  1.5655   1.6132   1.6534   1.6646   1.6840   1.7401   1.7430   1.7827
  1.7837   1.8759   1.9035   1.9129   1.9335   1.9436   1.9670   1.9818
  2.0028   2.0252   2.0647   2.0747   2.1479   2.1731   2.1881   2.2519
  2.2689   2.2811   2.3110   2.3489   2.3725   2.4267   2.4608   2.5198
  2.5331   2.5912   2.6531   2.6610   2.6962   2.7898   2.8339   2.9054
  2.9086   2.9642   2.9774   2.9917   3.0065   3.0351   3.0589   3.0605
  3.0756   3.0812   3.2022   3.2033   3.2545   3.2594   3.2759   3.2824
  3.3101   3.3219   3.3680   3.3886   3.3991   3.4239   3.4591   3.4655
  3.4842   3.5335   3.5368   3.5481   3.5656   3.5707   3.5998   3.6191
  3.6382   3.6487   3.6586   3.6772   3.7121   3.7306   3.7459   3.7917
  3.8622   3.8724   3.9078   3.9375   4.0111   4.0484   4.0676   4.1325
  4.1617   4.1810   4.2310   4.2443   4.2742   4.3080   4.3400   4.3633
  4.4220   4.4431   4.5073   4.5626   4.6953   4.7338   4.7723   4.8153
  4.8729   4.8800   4.8992   4.9294   5.0769   5.1097   5.1139   5.1432
  5.2131   5.3090   5.3094   5.3342   5.3682   5.3739   5.4049   5.4340
  5.4842   5.5332   5.5701   5.5932   5.6212   5.6358   5.6564   5.7259
  5.7417   5.7517   5.8172   5.8741   5.9126   6.0028   6.0053   6.0783
  6.1456   6.2592   6.3138   6.3285   6.3632   6.3733   6.4268   6.6166
  6.6367   6.6745   6.7315   6.7359   6.7850   6.8950   6.9127   6.9626
  7.0314   7.0941   7.1641   7.2794   7.3723   7.4736   7.5172   7.6550
  7.7471  15.1092  23.3640  23.6827  23.8870  44.2533  44.4013  44.5147
 --------------------------------------------------------------
 
          Ground-State Mulliken Net Atomic Charges

     Atom                 Charge (a.u.)
  ----------------------------------------
      1 O                    -0.426444
      2 C                     0.519813
      3 C                     0.351619
      4 O                    -0.799504
      5 O                    -0.599665
      6 C                    -1.391044
      7 H                     0.114588
      8 H                     0.116187
      9 H                     0.154767
     10 H                     0.154927
     11 Li                    0.804758
  ----------------------------------------
  Sum of atomic charges =    -1.000000

  Building new vdw surfaces
         Merz-Kollman RESP Net Atomic Charges

     Atom                 Charge (a.u.)
  ----------------------------------------
      1 O                    -0.453071
      2 C                     0.855024
      3 C                     0.575990
      4 O                    -0.844915
      5 O                    -0.783459
      6 C                    -1.980014
      7 H                     0.021928
      8 H                     0.021928
      9 H                     0.408679
     10 H                     0.408679
     11 Li                    0.769232
  ----------------------------------------
  Sum of atomic charges =    -1.000000

  Related Dipole Moment =     5.0329 (X -2.4805 Y  2.2774 Z -3.7404)

 -----------------------------------------------------------------
                    Cartesian Multipole Moments
 -----------------------------------------------------------------
    Charge (ESU x 10^10)
                -4.8032
    Dipole Moment (Debye)
         X      -2.5965      Y       2.3369      Z      -3.9092
       Tot       5.2426
    Quadrupole Moments (Debye-Ang)
        XX     -75.0685     XY      -9.8502     YY     -39.6466
        XZ     -13.6344     YZ      -8.2212     ZZ     -39.0408
    Octopole Moments (Debye-Ang^2)
       XXX    -118.0386    XXY     -32.7455    XYY     -24.5589
       YYY     -17.0243    XXZ      -4.0623    XYZ      -8.0492
       YYZ     -13.3809    XZZ     -13.6822    YZZ      10.5671
       ZZZ      -3.2201
    Hexadecapole Moments (Debye-Ang^3)
      XXXX    -914.0247   XXXY    -150.4344   XXYY    -181.3759
      XYYY     -95.9757   YYYY    -152.4639   XXXZ    -194.4061
      XXYZ       5.3763   XYYZ     -49.8619   YYYZ     -21.7125
      XXZZ    -215.6735   XYZZ     -13.1012   YYZZ     -35.3828
      XZZZ    -181.8534   YZZZ     -32.0327   ZZZZ    -269.6665
 -----------------------------------------------------------------
 Calculating analytic gradient of the SCF energy
 Gradient of CDS energy
            1           2           3           4           5           6
    1   0.0001928  -0.0012930  -0.0005524   0.0006472   0.0006578   0.0013743
    2   0.0000592  -0.0006661  -0.0005880   0.0008165  -0.0002448   0.0006859
    3   0.0000640  -0.0001327   0.0003231  -0.0005394   0.0008028   0.0001781
            7           8           9          10          11
    1  -0.0002922  -0.0001702  -0.0000923  -0.0002578  -0.0002141
    2   0.0001456  -0.0000614  -0.0002072   0.0000646  -0.0000045
    3  -0.0001440  -0.0003105  -0.0001515   0.0000636  -0.0001534
 Gradient of SCF Energy
            1           2           3           4           5           6
    1  -0.0084985  -0.0102614  -0.0040899   0.0010606   0.0103079   0.0473777
    2  -0.0018973  -0.0127882  -0.0729267  -0.0079041   0.0212216   0.0463490
    3  -0.0039100   0.0081014   0.0887829   0.0108860  -0.0188033  -0.0223138
            7           8           9          10          11
    1  -0.0036935   0.0256579  -0.0098227  -0.0500625   0.0020244
    2   0.0311031  -0.0175904  -0.0296587   0.0374697   0.0066221
    3   0.0188705  -0.0194086  -0.0544706  -0.0009036  -0.0068310
 Max gradient component =       8.878E-02
 RMS gradient           =       3.028E-02
 Computing fast CPCM-SWIG gradient
 Updating gradient with PCM contributions...
 -- total gradient after adding PCM contribution --
---------------------------------------------------
  Atom         X              Y              Z     
---------------------------------------------------
   1       0.000623       0.000328       0.000010
   2      -0.000244      -0.000092       0.000057
   3      -0.000093      -0.000076       0.000062
   4      -0.000141      -0.000058      -0.000080
   5      -0.000060      -0.000150       0.000095
   6      -0.000106       0.000005      -0.000082
   7       0.000016       0.000004      -0.000012
   8       0.000023       0.000011       0.000015
   9       0.000000       0.000026      -0.000029
  10       0.000004       0.000017      -0.000027
  11      -0.000023      -0.000015      -0.000011
---------------------------------------------------
 Number of fixed atoms: 0
 Gradient time:  CPU 251.81 s  wall 10.89 s
 ----------------------------------------------------------------
             Standard Nuclear Orientation (Angstroms)
    I     Atom           X                Y                Z
 ----------------------------------------------------------------
    1      O       0.5321928974     0.5145403116    -0.4445448826
    2      C      -0.7021949805    -0.0476091126    -0.6748708300
    3      C       1.4294954636     0.0651473345     0.7914634320
    4      O      -1.2340004762     0.4653456164    -1.7224510113
    5      O      -1.1581790789    -0.9152050640     0.0688352562
    6      C       2.6815238287     0.7733552699     0.8454354344
    7      H       1.4982004116    -1.0093803527     0.6079576934
    8      H       0.7385603195     0.2540299481     1.6162200839
    9      H       2.8027417246     1.5667990981     1.5816234967
   10      H       3.5908409740     0.2537552510     0.5469833434
   11      Li      0.2601087500     1.5474984308    -1.9566317506
 ----------------------------------------------------------------
 Nuclear Repulsion Energy =         249.48699521 hartrees
 There are       25 alpha and       25 beta electrons
 Discretize the solute cavity surface with Lebedev spheres
	Using 110 Lebedev grid points for each H atom
	Using 194 Lebedev grid points for other atoms
	Atomic van der Waals radii will be scaled by 1.20
 Remove points where switching function is < 1.0e-08
 Keep 811 surface tesserae and discard 987 interior tesserae
 Molecular Surface Area = 159.548 Angst**2

                       Distance Matrix (Angstroms)
             O (  1)   C (  2)   C (  3)   O (  4)   O (  5)   C (  6)
   C (  2)  1.375782
   C (  3)  1.592113  2.589779
   O (  4)  2.180574  1.281938  3.684309
   O (  5)  2.272683  1.230343  2.859955  2.262825
   C (  6)  2.520051  3.799324  1.439460  4.692573  4.265872
   H (  7)  2.088843  2.722571  1.092247  3.882080  2.712171  2.152858
   H (  8)  2.087392  2.723208  1.092379  3.883603  2.712772  2.153814
   H (  9)  3.219938  4.470197  2.182915  5.331547  4.913020  1.089137
   H ( 10)  3.225905  4.473690  2.183291  5.336122  4.914090  1.088997
   Li( 11)  1.851334  2.261262  3.334195  1.859639  3.489837  3.783402
             H (  7)   H (  8)   H (  9)   H ( 10)
   H (  8)  1.786016
   H (  9)  3.047385  2.446509
   H ( 10)  2.445071  3.046108  1.848152
   Li( 11)  3.827221  3.829784  4.357133  4.362985
 
 Requested basis set is def2-TZVPPD
 There are 119 shells and 321 basis functions
 A cutoff of  1.0D-14 yielded   6743 shell pairs
 There are     49535 function pairs (     63025 Cartesian)
 Smallest overlap matrix eigenvalue = 1.05E-05
 Guess MOs from SCF MO coefficient file

 -----------------------------------------------------------------------
  General SCF calculation program by
  Eric Jon Sundstrom, Paul Horn, Yuezhi Mao, Dmitri Zuev, Alec White,
  David Stuck, Shaama M.S., Shane Yost, Joonho Lee, David Small,
  Daniel Levine, Susi Lehtola, Hugh Burton, Evgeny Epifanovsky,
  Bang C. Huynh
 -----------------------------------------------------------------------
 Exchange:     0.1670 Hartree-Fock + 1.0000 wB97X-V + LR-HF
 Correlation:  1.0000 wB97X-V
 Using SG-3 standard quadrature grid
 Nonlocal Correlation:  VV10 with C = 0.0100 and b = 6.00 and scale = 1.00000
 Grid used for NLC:  SG-1 standard quadrature
 
 Citation of the SMD model:
 Marenich, A.V.; Cramer, C.J.; Truhlar, D.G.
 J. Phys. Chem. B 2009, 113, 6378-6396.
 iSolventCode=           0
 Solvent: other                                                           
 
 vradii
            1           2           3           4           5           6
    1   2.2940000   1.8500000   1.8500000   2.2940000   2.2940000   1.8500000
            7           8           9          10          11
    1   1.2000000   1.2000000   1.2000000   1.2000000   2.1476001
 using 32 threads for integral computing
 -------------------------------------------------------
 OpenMP Integral computing Module                
 Release: version 1.0, May 2013, Q-Chem Inc. Pittsburgh 
 -------------------------------------------------------
 using 32 threads for integral computing
 -------------------------------------------------------
 OpenMP Integral computing Module                
 Release: version 1.0, May 2013, Q-Chem Inc. Pittsburgh 
 -------------------------------------------------------
 -------------------------------------------------------
 OpenMP BLAS3 based DFT computing Module                
 Release: version 1.0, May 2013, Q-Chem Inc. Pittsburgh 
 -------------------------------------------------------
 -------------------------------------------------------
 OpenMP BLAS3 based DFT computing Module                
 Release: version 1.0, May 2013, Q-Chem Inc. Pittsburgh 
 -------------------------------------------------------
 -------------------------------------------------------
 OpenMP BLAS3 based DFT computing Module                
 Release: version 1.0, May 2013, Q-Chem Inc. Pittsburgh 
 -------------------------------------------------------
 A restricted SCF calculation will be
 performed using Roothaan-Hall, DIIS
 SCF converges when DIIS error is below 1.0e-08
 ---------------------------------------
  Cycle       Energy         DIIS error
 ---------------------------------------
    1    -342.7785647437      3.05e-04  Roothaan Step
 ---------------------------------------
  Cycle       Energy         DIIS error
 ---------------------------------------
    1    -350.0932651925      3.74e-04  
    2    -350.0953976378      3.57e-04  
    3    -350.0967464307      7.32e-05  
    4    -350.0968419551      4.32e-05  
    5    -350.0968770598      1.31e-05  
    6    -350.0968832412      3.48e-06  
    7    -350.0968841584      1.75e-06  
    8    -350.0968843034      8.58e-07  
    9    -350.0968843399      3.94e-07  
   10    -350.0968843462      1.51e-07  
   11    -350.0968843476      8.09e-08  
   12    -350.0968843479      3.03e-08  
   13    -350.0968843480      7.19e-09  Convergence criterion met
 ---------------------------------------
 SCF time:   CPU 1293.97s  wall 46.00s 
(3)  G-ENP(liq) elect-nuc-pol free energy of system     -350.096884348 a.u.
(4)  G-CDS(liq) cavity-dispersion-solvent structure 
     free energy                                               -1.5789 kcal/mol
(6)  G-S(liq) free energy of system                     -350.099400476 a.u.
 SCF   energy in the final basis set =     -350.0968843480
 Total energy in the final basis set =     -350.0994004764
 
 --------------------------------------------------------------
 
                    Orbital Energies (a.u.)
 --------------------------------------------------------------
 
 Alpha MOs
 -- Occupied --
-19.1845 -19.1367 -19.1321 -10.3693 -10.2751 -10.1698  -2.0689  -1.1823
 -1.0711  -1.0546  -0.8288  -0.6735  -0.6132  -0.5525  -0.5512  -0.5268
 -0.5048  -0.4615  -0.4257  -0.4151  -0.3730  -0.3602  -0.3445  -0.3295
 -0.2253
 -- Virtual --
  0.0408   0.0562   0.0584   0.0655   0.0995   0.1124   0.1195   0.1343
  0.1351   0.1442   0.1510   0.1569   0.1613   0.1675   0.1824   0.1831
  0.1931   0.1959   0.2068   0.2112   0.2127   0.2224   0.2345   0.2656
  0.2830   0.2843   0.2947   0.3007   0.3097   0.3142   0.3224   0.3411
  0.3483   0.3565   0.3609   0.3733   0.3776   0.3828   0.3953   0.3979
  0.4015   0.4129   0.4306   0.4344   0.4385   0.4418   0.4463   0.4512
  0.4532   0.4702   0.4750   0.4771   0.4829   0.5065   0.5090   0.5091
  0.5159   0.5336   0.5361   0.5519   0.5523   0.5628   0.5713   0.5817
  0.5841   0.5944   0.6042   0.6136   0.6322   0.6478   0.6517   0.6624
  0.6760   0.6877   0.7039   0.7086   0.7251   0.7424   0.7519   0.7652
  0.7759   0.7820   0.7884   0.7921   0.8107   0.8185   0.8240   0.8429
  0.8458   0.8629   0.8675   0.8867   0.8950   0.9038   0.9292   0.9377
  0.9580   0.9912   0.9937   1.0091   1.0477   1.0603   1.0623   1.0734
  1.1043   1.1393   1.1579   1.1651   1.1951   1.2203   1.2249   1.2411
  1.2468   1.2555   1.2912   1.2941   1.3210   1.3386   1.3417   1.3533
  1.3721   1.3957   1.4336   1.4582   1.4673   1.5019   1.5262   1.5530
  1.5655   1.6133   1.6534   1.6646   1.6842   1.7401   1.7429   1.7828
  1.7837   1.8759   1.9039   1.9131   1.9335   1.9439   1.9670   1.9818
  2.0026   2.0252   2.0648   2.0748   2.1482   2.1730   2.1883   2.2517
  2.2693   2.2817   2.3110   2.3492   2.3727   2.4267   2.4609   2.5198
  2.5334   2.5913   2.6519   2.6611   2.6968   2.7903   2.8339   2.9054
  2.9087   2.9641   2.9774   2.9918   3.0069   3.0354   3.0589   3.0606
  3.0756   3.0812   3.2025   3.2032   3.2544   3.2594   3.2756   3.2823
  3.3103   3.3219   3.3680   3.3887   3.3993   3.4243   3.4594   3.4654
  3.4846   3.5342   3.5370   3.5493   3.5660   3.5706   3.5997   3.6190
  3.6380   3.6487   3.6587   3.6774   3.7122   3.7306   3.7459   3.7921
  3.8621   3.8722   3.9079   3.9374   4.0110   4.0484   4.0674   4.1324
  4.1616   4.1810   4.2317   4.2447   4.2742   4.3081   4.3400   4.3632
  4.4219   4.4430   4.5072   4.5630   4.6959   4.7338   4.7722   4.8153
  4.8731   4.8799   4.8989   4.9292   5.0769   5.1097   5.1140   5.1435
  5.2130   5.3091   5.3095   5.3344   5.3683   5.3734   5.4050   5.4339
  5.4844   5.5331   5.5703   5.5931   5.6215   5.6361   5.6564   5.7259
  5.7420   5.7523   5.8174   5.8735   5.9131   6.0041   6.0045   6.0782
  6.1457   6.2593   6.3139   6.3298   6.3633   6.3742   6.4289   6.6182
  6.6371   6.6748   6.7318   6.7362   6.7853   6.8951   6.9132   6.9629
  7.0316   7.0945   7.1652   7.2797   7.3726   7.4734   7.5175   7.6561
  7.7479  15.1093  23.3638  23.6827  23.8912  44.2536  44.4020  44.5147
 --------------------------------------------------------------
 
          Ground-State Mulliken Net Atomic Charges

     Atom                 Charge (a.u.)
  ----------------------------------------
      1 O                    -0.427170
      2 C                     0.521481
      3 C                     0.350530
      4 O                    -0.800172
      5 O                    -0.600390
      6 C                    -1.389838
      7 H                     0.114744
      8 H                     0.116343
      9 H                     0.154707
     10 H                     0.154971
     11 Li                    0.804794
  ----------------------------------------
  Sum of atomic charges =    -1.000000

  Building new vdw surfaces
         Merz-Kollman RESP Net Atomic Charges

     Atom                 Charge (a.u.)
  ----------------------------------------
      1 O                    -0.453025
      2 C                     0.856039
      3 C                     0.574414
      4 O                    -0.846022
      5 O                    -0.784317
      6 C                    -1.977923
      7 H                     0.022296
      8 H                     0.022296
      9 H                     0.408402
     10 H                     0.408402
     11 Li                    0.769439
  ----------------------------------------
  Sum of atomic charges =    -1.000000

  Related Dipole Moment =     5.0186 (X -2.4564 Y  2.2836 Z -3.7333)

 -----------------------------------------------------------------
                    Cartesian Multipole Moments
 -----------------------------------------------------------------
    Charge (ESU x 10^10)
                -4.8032
    Dipole Moment (Debye)
         X      -2.5718      Y       2.3433      Z      -3.9016
       Tot       5.2276
    Quadrupole Moments (Debye-Ang)
        XX     -75.0354     XY      -9.8386     YY     -39.6408
        XZ     -13.6358     YZ      -8.2179     ZZ     -39.0421
    Octopole Moments (Debye-Ang^2)
       XXX    -117.8168    XXY     -32.6988    XYY     -24.5027
       YYY     -16.9909    XXZ      -4.0158    XYZ      -8.0506
       YYZ     -13.3728    XZZ     -13.6134    YZZ      10.5722
       ZZZ      -3.1724
    Hexadecapole Moments (Debye-Ang^3)
      XXXX    -913.4644   XXXY    -150.2946   XXYY    -181.2880
      XYYY     -95.9040   YYYY    -152.4134   XXXZ    -194.3296
      XXYZ       5.3918   XYYZ     -49.8671   YYYZ     -21.7087
      XXZZ    -215.5882   XYZZ     -13.0667   YYZZ     -35.3775
      XZZZ    -181.8658   YZZZ     -32.0117   ZZZZ    -269.6904
 -----------------------------------------------------------------
 Calculating analytic gradient of the SCF energy
 Gradient of CDS energy
            1           2           3           4           5           6
    1   0.0001909  -0.0012906  -0.0005524   0.0006472   0.0006578   0.0013746
    2   0.0000580  -0.0006650  -0.0005882   0.0008165  -0.0002448   0.0006859
    3   0.0000630  -0.0001321   0.0003222  -0.0005394   0.0008028   0.0001786
            7           8           9          10          11
    1  -0.0002922  -0.0001706  -0.0000923  -0.0002578  -0.0002145
    2   0.0001457  -0.0000610  -0.0002072   0.0000646  -0.0000045
    3  -0.0001436  -0.0003107  -0.0001515   0.0000636  -0.0001528
 Gradient of SCF Energy
            1           2           3           4           5           6
    1  -0.0094929  -0.0097592  -0.0041053   0.0012615   0.0104365   0.0474211
    2  -0.0022364  -0.0126764  -0.0727289  -0.0078936   0.0213991   0.0462419
    3  -0.0041469   0.0081973   0.0884557   0.0111001  -0.0188719  -0.0221302
            7           8           9          10          11
    1  -0.0036873   0.0256533  -0.0098059  -0.0499942   0.0020725
    2   0.0310737  -0.0175776  -0.0296371   0.0374107   0.0066245
    3   0.0188817  -0.0194011  -0.0544115  -0.0008655  -0.0068077
 Max gradient component =       8.846E-02
 RMS gradient           =       3.023E-02
 Computing fast CPCM-SWIG gradient
 Updating gradient with PCM contributions...
 -- total gradient after adding PCM contribution --
---------------------------------------------------
  Atom         X              Y              Z     
---------------------------------------------------
   1      -0.000535      -0.000024      -0.000271
   2       0.000270       0.000005       0.000115
   3      -0.000199      -0.000094      -0.000123
   4       0.000139      -0.000041       0.000182
   5       0.000119       0.000082       0.000019
   6       0.000093       0.000085      -0.000020
   7       0.000052      -0.000032       0.000058
   8       0.000018       0.000011       0.000034
   9       0.000014       0.000015      -0.000007
  10       0.000017       0.000009      -0.000001
  11       0.000012      -0.000015       0.000013
---------------------------------------------------
 Number of fixed atoms: 0
 Gradient time:  CPU 252.46 s  wall 10.84 s
 ----------------------------------------------------------------
             Standard Nuclear Orientation (Angstroms)
    I     Atom           X                Y                Z
 ----------------------------------------------------------------
    1      O       0.5331928974     0.5155403116    -0.4445448826
    2      C      -0.7021949805    -0.0476091126    -0.6748708300
    3      C       1.4294954636     0.0651473345     0.7914634320
    4      O      -1.2340004762     0.4653456164    -1.7224510113
    5      O      -1.1581790789    -0.9152050640     0.0688352562
    6      C       2.6815238287     0.7733552699     0.8454354344
    7      H       1.4982004116    -1.0093803527     0.6079576934
    8      H       0.7385603195     0.2540299481     1.6162200839
    9      H       2.8027417246     1.5667990981     1.5816234967
   10      H       3.5908409740     0.2537552510     0.5469833434
   11      Li      0.2601087500     1.5474984308    -1.9566317506
 ----------------------------------------------------------------
 Nuclear Repulsion Energy =         249.46320688 hartrees
 There are       25 alpha and       25 beta electrons
 Discretize the solute cavity surface with Lebedev spheres
	Using 110 Lebedev grid points for each H atom
	Using 194 Lebedev grid points for other atoms
	Atomic van der Waals radii will be scaled by 1.20
 Remove points where switching function is < 1.0e-08
 Keep 811 surface tesserae and discard 987 interior tesserae
 Molecular Surface Area = 159.549 Angst**2

                       Distance Matrix (Angstroms)
             O (  1)   C (  2)   C (  3)   O (  4)   O (  5)   C (  6)
   C (  2)  1.377088
   C (  3)  1.591832  2.589779
   O (  4)  2.181407  1.281938  3.684309
   O (  5)  2.274056  1.230343  2.859955  2.262825
   C (  6)  2.519096  3.799324  1.439460  4.692573  4.265872
   H (  7)  2.089111  2.722571  1.092247  3.882080  2.712171  2.152858
   H (  8)  2.087418  2.723208  1.092379  3.883603  2.712772  2.153814
   H (  9)  3.218906  4.470197  2.182915  5.331547  4.913020  1.089137
   H ( 10)  3.225038  4.473690  2.183291  5.336122  4.914090  1.088997
   Li( 11)  1.850924  2.261262  3.334195  1.859639  3.489837  3.783402
             H (  7)   H (  8)   H (  9)   H ( 10)
   H (  8)  1.786016
   H (  9)  3.047385  2.446509
   H ( 10)  2.445071  3.046108  1.848152
   Li( 11)  3.827221  3.829784  4.357133  4.362985
 
 Requested basis set is def2-TZVPPD
 There are 119 shells and 321 basis functions
 A cutoff of  1.0D-14 yielded   6743 shell pairs
 There are     49535 function pairs (     63025 Cartesian)
 Smallest overlap matrix eigenvalue = 1.05E-05
 Guess MOs from SCF MO coefficient file

 -----------------------------------------------------------------------
  General SCF calculation program by
  Eric Jon Sundstrom, Paul Horn, Yuezhi Mao, Dmitri Zuev, Alec White,
  David Stuck, Shaama M.S., Shane Yost, Joonho Lee, David Small,
  Daniel Levine, Susi Lehtola, Hugh Burton, Evgeny Epifanovsky,
  Bang C. Huynh
 -----------------------------------------------------------------------
 Exchange:     0.1670 Hartree-Fock + 1.0000 wB97X-V + LR-HF
 Correlation:  1.0000 wB97X-V
 Using SG-3 standard quadrature grid
 Nonlocal Correlation:  VV10 with C = 0.0100 and b = 6.00 and scale = 1.00000
 Grid used for NLC:  SG-1 standard quadrature
 
 Citation of the SMD model:
 Marenich, A.V.; Cramer, C.J.; Truhlar, D.G.
 J. Phys. Chem. B 2009, 113, 6378-6396.
 iSolventCode=           0
 Solvent: other                                                           
 
 vradii
            1           2           3           4           5           6
    1   2.2940000   1.8500000   1.8500000   2.2940000   2.2940000   1.8500000
            7           8           9          10          11
    1   1.2000000   1.2000000   1.2000000   1.2000000   2.1476001
 using 32 threads for integral computing
 -------------------------------------------------------
 OpenMP Integral computing Module                
 Release: version 1.0, May 2013, Q-Chem Inc. Pittsburgh 
 -------------------------------------------------------
 using 32 threads for integral computing
 -------------------------------------------------------
 OpenMP Integral computing Module                
 Release: version 1.0, May 2013, Q-Chem Inc. Pittsburgh 
 -------------------------------------------------------
 -------------------------------------------------------
 OpenMP BLAS3 based DFT computing Module                
 Release: version 1.0, May 2013, Q-Chem Inc. Pittsburgh 
 -------------------------------------------------------
 -------------------------------------------------------
 OpenMP BLAS3 based DFT computing Module                
 Release: version 1.0, May 2013, Q-Chem Inc. Pittsburgh 
 -------------------------------------------------------
 -------------------------------------------------------
 OpenMP BLAS3 based DFT computing Module                
 Release: version 1.0, May 2013, Q-Chem Inc. Pittsburgh 
 -------------------------------------------------------
 A restricted SCF calculation will be
 performed using Roothaan-Hall, DIIS
 SCF converges when DIIS error is below 1.0e-08
 ---------------------------------------
  Cycle       Energy         DIIS error
 ---------------------------------------
    1    -342.7785645256      3.04e-04  Roothaan Step
 ---------------------------------------
  Cycle       Energy         DIIS error
 ---------------------------------------
    1    -350.0932696549      3.73e-04  
    2    -350.0954064916      3.55e-04  
    3    -350.0967471743      7.32e-05  
    4    -350.0968423920      4.33e-05  
    5    -350.0968774183      1.32e-05  
    6    -350.0968835706      3.49e-06  
    7    -350.0968844786      1.76e-06  
    8    -350.0968846214      8.62e-07  
    9    -350.0968846584      3.93e-07  
   10    -350.0968846647      1.50e-07  
   11    -350.0968846661      8.17e-08  
   12    -350.0968846664      2.98e-08  
   13    -350.0968846664      7.17e-09  Convergence criterion met
 ---------------------------------------
 SCF time:   CPU 1290.56s  wall 46.00s 
(3)  G-ENP(liq) elect-nuc-pol free energy of system     -350.096884666 a.u.
(4)  G-CDS(liq) cavity-dispersion-solvent structure 
     free energy                                               -1.5786 kcal/mol
(6)  G-S(liq) free energy of system                     -350.099400322 a.u.
 SCF   energy in the final basis set =     -350.0968846664
 Total energy in the final basis set =     -350.0994003223
 
 --------------------------------------------------------------
 
                    Orbital Energies (a.u.)
 --------------------------------------------------------------
 
 Alpha MOs
 -- Occupied --
-19.1845 -19.1368 -19.1323 -10.3695 -10.2751 -10.1698  -2.0689  -1.1821
 -1.0712  -1.0547  -0.8287  -0.6734  -0.6133  -0.5525  -0.5513  -0.5268
 -0.5047  -0.4615  -0.4258  -0.4151  -0.3731  -0.3602  -0.3446  -0.3297
 -0.2252
 -- Virtual --
  0.0408   0.0562   0.0584   0.0655   0.0995   0.1124   0.1195   0.1343
  0.1351   0.1442   0.1510   0.1569   0.1613   0.1675   0.1824   0.1831
  0.1931   0.1958   0.2068   0.2112   0.2128   0.2224   0.2345   0.2655
  0.2830   0.2843   0.2947   0.3007   0.3098   0.3142   0.3224   0.3412
  0.3483   0.3564   0.3608   0.3733   0.3775   0.3827   0.3952   0.3979
  0.4015   0.4128   0.4306   0.4344   0.4386   0.4417   0.4463   0.4511
  0.4531   0.4702   0.4748   0.4771   0.4828   0.5063   0.5090   0.5092
  0.5158   0.5336   0.5361   0.5519   0.5523   0.5627   0.5714   0.5817
  0.5841   0.5944   0.6042   0.6136   0.6321   0.6478   0.6517   0.6623
  0.6759   0.6876   0.7039   0.7086   0.7251   0.7424   0.7519   0.7652
  0.7759   0.7819   0.7883   0.7920   0.8108   0.8185   0.8240   0.8429
  0.8457   0.8629   0.8675   0.8867   0.8950   0.9037   0.9293   0.9376
  0.9580   0.9912   0.9936   1.0090   1.0477   1.0603   1.0621   1.0734
  1.1042   1.1393   1.1578   1.1651   1.1951   1.2203   1.2249   1.2411
  1.2468   1.2556   1.2911   1.2940   1.3210   1.3385   1.3417   1.3533
  1.3721   1.3956   1.4335   1.4580   1.4673   1.5016   1.5261   1.5530
  1.5654   1.6132   1.6534   1.6646   1.6840   1.7400   1.7430   1.7827
  1.7837   1.8759   1.9036   1.9130   1.9335   1.9437   1.9670   1.9818
  2.0027   2.0252   2.0647   2.0747   2.1480   2.1731   2.1881   2.2518
  2.2690   2.2813   2.3109   2.3489   2.3726   2.4266   2.4608   2.5195
  2.5332   2.5909   2.6528   2.6610   2.6962   2.7900   2.8339   2.9054
  2.9086   2.9642   2.9774   2.9917   3.0066   3.0352   3.0589   3.0605
  3.0755   3.0812   3.2021   3.2033   3.2544   3.2594   3.2757   3.2823
  3.3100   3.3219   3.3680   3.3885   3.3991   3.4240   3.4591   3.4655
  3.4844   3.5336   3.5368   3.5483   3.5657   3.5707   3.5998   3.6190
  3.6380   3.6487   3.6587   3.6773   3.7121   3.7306   3.7459   3.7915
  3.8622   3.8722   3.9077   3.9374   4.0110   4.0483   4.0676   4.1323
  4.1616   4.1810   4.2312   4.2442   4.2742   4.3080   4.3400   4.3633
  4.4220   4.4431   4.5072   4.5626   4.6954   4.7338   4.7721   4.8152
  4.8729   4.8800   4.8990   4.9292   5.0769   5.1097   5.1134   5.1434
  5.2130   5.3091   5.3094   5.3343   5.3682   5.3738   5.4049   5.4339
  5.4843   5.5334   5.5702   5.5931   5.6212   5.6359   5.6564   5.7258
  5.7418   5.7517   5.8172   5.8733   5.9125   6.0030   6.0050   6.0782
  6.1458   6.2588   6.3140   6.3288   6.3634   6.3736   6.4273   6.6168
  6.6369   6.6746   6.7316   6.7361   6.7850   6.8949   6.9130   6.9627
  7.0313   7.0940   7.1644   7.2796   7.3724   7.4735   7.5172   7.6554
  7.7468  15.1099  23.3639  23.6826  23.8881  44.2534  44.4015  44.5142
 --------------------------------------------------------------
 
          Ground-State Mulliken Net Atomic Charges

     Atom                 Charge (a.u.)
  ----------------------------------------
      1 O                    -0.426972
      2 C                     0.520372
      3 C                     0.351241
      4 O                    -0.799762
      5 O                    -0.599827
      6 C                    -1.390467
      7 H                     0.114664
      8 H                     0.116260
      9 H                     0.154691
     10 H                     0.154979
     11 Li                    0.804821
  ----------------------------------------
  Sum of atomic charges =    -1.000000

  Building new vdw surfaces
         Merz-Kollman RESP Net Atomic Charges

     Atom                 Charge (a.u.)
  ----------------------------------------
      1 O                    -0.453183
      2 C                     0.855352
      3 C                     0.574952
      4 O                    -0.845417
      5 O                    -0.783631
      6 C                    -1.978579
      7 H                     0.022156
      8 H                     0.022156
      9 H                     0.408424
     10 H                     0.408424
     11 Li                    0.769346
  ----------------------------------------
  Sum of atomic charges =    -1.000000

  Related Dipole Moment =     5.0246 (X -2.4697 Y  2.2773 Z -3.7365)

 -----------------------------------------------------------------
                    Cartesian Multipole Moments
 -----------------------------------------------------------------
    Charge (ESU x 10^10)
                -4.8032
    Dipole Moment (Debye)
         X      -2.5855      Y       2.3370      Z      -3.9051
       Tot       5.2341
    Quadrupole Moments (Debye-Ang)
        XX     -75.0502     XY      -9.8442     YY     -39.6453
        XZ     -13.6362     YZ      -8.2192     ZZ     -39.0423
    Octopole Moments (Debye-Ang^2)
       XXX    -117.9387    XXY     -32.7284    XYY     -24.5321
       YYY     -17.0308    XXZ      -4.0423    XYZ      -8.0490
       YYZ     -13.3745    XZZ     -13.6504    YZZ      10.5628
       ZZZ      -3.1965
    Hexadecapole Moments (Debye-Ang^3)
      XXXX    -913.7546   XXXY    -150.3650   XXYY    -181.3293
      XYYY     -95.9463   YYYY    -152.4734   XXXZ    -194.3874
      XXYZ       5.3838   XYYZ     -49.8634   YYYZ     -21.7030
      XXZZ    -215.6394   XYZZ     -13.0893   YYZZ     -35.3864
      XZZZ    -181.8687   YZZZ     -32.0168   ZZZZ    -269.6858
 -----------------------------------------------------------------
 Calculating analytic gradient of the SCF energy
 Gradient of CDS energy
            1           2           3           4           5           6
    1   0.0001925  -0.0012925  -0.0005521   0.0006472   0.0006578   0.0013743
    2   0.0000587  -0.0006659  -0.0005886   0.0008165  -0.0002448   0.0006861
    3   0.0000630  -0.0001324   0.0003224  -0.0005394   0.0008028   0.0001783
            7           8           9          10          11
    1  -0.0002922  -0.0001705  -0.0000923  -0.0002578  -0.0002144
    2   0.0001457  -0.0000610  -0.0002072   0.0000646  -0.0000041
    3  -0.0001433  -0.0003107  -0.0001515   0.0000636  -0.0001528
 Gradient of SCF Energy
            1           2           3           4           5           6
    1  -0.0088375  -0.0100887  -0.0041062   0.0011703   0.0102831   0.0473755
    2  -0.0018079  -0.0128929  -0.0729506  -0.0078537   0.0212782   0.0463667
    3  -0.0041586   0.0081716   0.0887116   0.0110052  -0.0188177  -0.0223169
            7           8           9          10          11
    1  -0.0036811   0.0256741  -0.0098195  -0.0500237   0.0020537
    2   0.0310756  -0.0175904  -0.0296493   0.0374277   0.0065965
    3   0.0189108  -0.0193966  -0.0544496  -0.0008699  -0.0067898
 Max gradient component =       8.871E-02
 RMS gradient           =       3.028E-02
 Computing fast CPCM-SWIG gradient
 Updating gradient with PCM contributions...
 -- total gradient after adding PCM contribution --
---------------------------------------------------
  Atom         X              Y              Z     
---------------------------------------------------
   1       0.000221       0.000500      -0.000307
   2      -0.000055      -0.000251       0.000121
   3      -0.000176      -0.000215       0.000002
   4       0.000017      -0.000001       0.000060
   5      -0.000086      -0.000079       0.000092
   6      -0.000018       0.000072      -0.000078
   7       0.000063      -0.000034       0.000077
   8       0.000020       0.000014       0.000030
   9       0.000004       0.000020      -0.000019
  10       0.000008       0.000012      -0.000014
  11       0.000003      -0.000039       0.000035
---------------------------------------------------
 Number of fixed atoms: 0
 Gradient time:  CPU 251.19 s  wall 10.82 s
 ----------------------------------------------------------------
             Standard Nuclear Orientation (Angstroms)
    I     Atom           X                Y                Z
 ----------------------------------------------------------------
    1      O       0.5331928974     0.5135403116    -0.4445448826
    2      C      -0.7021949805    -0.0476091126    -0.6748708300
    3      C       1.4294954636     0.0651473345     0.7914634320
    4      O      -1.2340004762     0.4653456164    -1.7224510113
    5      O      -1.1581790789    -0.9152050640     0.0688352562
    6      C       2.6815238287     0.7733552699     0.8454354344
    7      H       1.4982004116    -1.0093803527     0.6079576934
    8      H       0.7385603195     0.2540299481     1.6162200839
    9      H       2.8027417246     1.5667990981     1.5816234967
   10      H       3.5908409740     0.2537552510     0.5469833434
   11      Li      0.2601087500     1.5474984308    -1.9566317506
 ----------------------------------------------------------------
 Nuclear Repulsion Energy =         249.48487954 hartrees
 There are       25 alpha and       25 beta electrons
 Discretize the solute cavity surface with Lebedev spheres
	Using 110 Lebedev grid points for each H atom
	Using 194 Lebedev grid points for other atoms
	Atomic van der Waals radii will be scaled by 1.20
 Remove points where switching function is < 1.0e-08
 Keep 811 surface tesserae and discard 987 interior tesserae
 Molecular Surface Area = 159.549 Angst**2

                       Distance Matrix (Angstroms)
             O (  1)   C (  2)   C (  3)   O (  4)   O (  5)   C (  6)
   C (  2)  1.376271
   C (  3)  1.591267  2.589779
   O (  4)  2.181362  1.281938  3.684309
   O (  5)  2.272798  1.230343  2.859955  2.262825
   C (  6)  2.519301  3.799324  1.439460  4.692573  4.265872
   H (  7)  2.087651  2.722571  1.092247  3.882080  2.712171  2.152858
   H (  8)  2.087169  2.723208  1.092379  3.883603  2.712772  2.153814
   H (  9)  3.219560  4.470197  2.182915  5.331547  4.913020  1.089137
   H ( 10)  3.224876  4.473690  2.183291  5.336122  4.914090  1.088997
   Li( 11)  1.852040  2.261262  3.334195  1.859639  3.489837  3.783402
             H (  7)   H (  8)   H (  9)   H ( 10)
   H (  8)  1.786016
   H (  9)  3.047385  2.446509
   H ( 10)  2.445071  3.046108  1.848152
   Li( 11)  3.827221  3.829784  4.357133  4.362985
 
 Requested basis set is def2-TZVPPD
 There are 119 shells and 321 basis functions
 A cutoff of  1.0D-14 yielded   6743 shell pairs
 There are     49535 function pairs (     63025 Cartesian)
 Smallest overlap matrix eigenvalue = 1.05E-05
 Guess MOs from SCF MO coefficient file

 -----------------------------------------------------------------------
  General SCF calculation program by
  Eric Jon Sundstrom, Paul Horn, Yuezhi Mao, Dmitri Zuev, Alec White,
  David Stuck, Shaama M.S., Shane Yost, Joonho Lee, David Small,
  Daniel Levine, Susi Lehtola, Hugh Burton, Evgeny Epifanovsky,
  Bang C. Huynh
 -----------------------------------------------------------------------
 Exchange:     0.1670 Hartree-Fock + 1.0000 wB97X-V + LR-HF
 Correlation:  1.0000 wB97X-V
 Using SG-3 standard quadrature grid
 Nonlocal Correlation:  VV10 with C = 0.0100 and b = 6.00 and scale = 1.00000
 Grid used for NLC:  SG-1 standard quadrature
 
 Citation of the SMD model:
 Marenich, A.V.; Cramer, C.J.; Truhlar, D.G.
 J. Phys. Chem. B 2009, 113, 6378-6396.
 iSolventCode=           0
 Solvent: other                                                           
 
 vradii
            1           2           3           4           5           6
    1   2.2940000   1.8500000   1.8500000   2.2940000   2.2940000   1.8500000
            7           8           9          10          11
    1   1.2000000   1.2000000   1.2000000   1.2000000   2.1476001
 using 32 threads for integral computing
 -------------------------------------------------------
 OpenMP Integral computing Module                
 Release: version 1.0, May 2013, Q-Chem Inc. Pittsburgh 
 -------------------------------------------------------
 using 32 threads for integral computing
 -------------------------------------------------------
 OpenMP Integral computing Module                
 Release: version 1.0, May 2013, Q-Chem Inc. Pittsburgh 
 -------------------------------------------------------
 -------------------------------------------------------
 OpenMP BLAS3 based DFT computing Module                
 Release: version 1.0, May 2013, Q-Chem Inc. Pittsburgh 
 -------------------------------------------------------
 -------------------------------------------------------
 OpenMP BLAS3 based DFT computing Module                
 Release: version 1.0, May 2013, Q-Chem Inc. Pittsburgh 
 -------------------------------------------------------
 -------------------------------------------------------
 OpenMP BLAS3 based DFT computing Module                
 Release: version 1.0, May 2013, Q-Chem Inc. Pittsburgh 
 -------------------------------------------------------
 A restricted SCF calculation will be
 performed using Roothaan-Hall, DIIS
 SCF converges when DIIS error is below 1.0e-08
 ---------------------------------------
  Cycle       Energy         DIIS error
 ---------------------------------------
    1    -342.7786524517      3.05e-04  Roothaan Step
 ---------------------------------------
  Cycle       Energy         DIIS error
 ---------------------------------------
    1    -350.0932611859      3.74e-04  
    2    -350.0953962120      3.57e-04  
    3    -350.0967470042      7.32e-05  
    4    -350.0968426060      4.33e-05  
    5    -350.0968777515      1.32e-05  
    6    -350.0968839238      3.48e-06  
    7    -350.0968848347      1.75e-06  
    8    -350.0968849773      8.59e-07  
    9    -350.0968850135      3.93e-07  
   10    -350.0968850197      1.50e-07  
   11    -350.0968850211      8.10e-08  
   12    -350.0968850214      3.00e-08  
   13    -350.0968850214      7.18e-09  Convergence criterion met
 ---------------------------------------
 SCF time:   CPU 1289.60s  wall 46.00s 
(3)  G-ENP(liq) elect-nuc-pol free energy of system     -350.096885021 a.u.
(4)  G-CDS(liq) cavity-dispersion-solvent structure 
     free energy                                               -1.5787 kcal/mol
(6)  G-S(liq) free energy of system                     -350.099400899 a.u.
 SCF   energy in the final basis set =     -350.0968850214
 Total energy in the final basis set =     -350.0994008989
 
 --------------------------------------------------------------
 
                    Orbital Energies (a.u.)
 --------------------------------------------------------------
 
 Alpha MOs
 -- Occupied --
-19.1846 -19.1368 -19.1322 -10.3694 -10.2751 -10.1698  -2.0690  -1.1823
 -1.0712  -1.0548  -0.8288  -0.6736  -0.6133  -0.5526  -0.5513  -0.5268
 -0.5047  -0.4615  -0.4257  -0.4152  -0.3731  -0.3601  -0.3446  -0.3296
 -0.2252
 -- Virtual --
  0.0408   0.0562   0.0584   0.0655   0.0995   0.1124   0.1195   0.1343
  0.1350   0.1442   0.1510   0.1569   0.1613   0.1675   0.1824   0.1831
  0.1931   0.1958   0.2068   0.2112   0.2128   0.2224   0.2345   0.2656
  0.2830   0.2843   0.2947   0.3008   0.3097   0.3142   0.3224   0.3411
  0.3483   0.3565   0.3608   0.3733   0.3776   0.3828   0.3952   0.3979
  0.4015   0.4128   0.4306   0.4344   0.4385   0.4418   0.4463   0.4512
  0.4532   0.4702   0.4750   0.4771   0.4828   0.5065   0.5090   0.5091
  0.5159   0.5336   0.5361   0.5519   0.5523   0.5628   0.5714   0.5816
  0.5841   0.5944   0.6042   0.6136   0.6321   0.6478   0.6517   0.6623
  0.6760   0.6876   0.7039   0.7086   0.7250   0.7423   0.7519   0.7652
  0.7759   0.7820   0.7884   0.7921   0.8107   0.8184   0.8240   0.8429
  0.8457   0.8629   0.8675   0.8866   0.8950   0.9038   0.9291   0.9377
  0.9580   0.9912   0.9937   1.0090   1.0476   1.0603   1.0622   1.0734
  1.1043   1.1394   1.1579   1.1651   1.1953   1.2204   1.2249   1.2411
  1.2468   1.2555   1.2911   1.2941   1.3210   1.3387   1.3417   1.3532
  1.3721   1.3956   1.4336   1.4582   1.4673   1.5017   1.5262   1.5530
  1.5656   1.6133   1.6534   1.6646   1.6841   1.7402   1.7429   1.7828
  1.7838   1.8759   1.9038   1.9130   1.9334   1.9438   1.9670   1.9817
  2.0027   2.0253   2.0649   2.0747   2.1481   2.1730   2.1884   2.2519
  2.2692   2.2815   2.3110   2.3491   2.3725   2.4268   2.4608   2.5201
  2.5333   2.5915   2.6523   2.6610   2.6967   2.7901   2.8339   2.9055
  2.9086   2.9642   2.9775   2.9917   3.0068   3.0354   3.0589   3.0605
  3.0757   3.0813   3.2025   3.2032   3.2545   3.2595   3.2758   3.2823
  3.3104   3.3219   3.3680   3.3887   3.3993   3.4242   3.4594   3.4655
  3.4844   3.5341   3.5369   3.5490   3.5660   3.5706   3.5997   3.6191
  3.6382   3.6486   3.6586   3.6773   3.7122   3.7306   3.7460   3.7922
  3.8621   3.8724   3.9081   3.9376   4.0111   4.0485   4.0674   4.1325
  4.1617   4.1810   4.2315   4.2448   4.2742   4.3081   4.3400   4.3632
  4.4220   4.4431   4.5073   4.5631   4.6958   4.7338   4.7724   4.8153
  4.8730   4.8798   4.8990   4.9294   5.0769   5.1097   5.1146   5.1433
  5.2130   5.3090   5.3094   5.3344   5.3683   5.3735   5.4050   5.4340
  5.4844   5.5329   5.5702   5.5932   5.6215   5.6361   5.6564   5.7259
  5.7419   5.7523   5.8174   5.8743   5.9132   6.0041   6.0047   6.0783
  6.1455   6.2597   6.3138   6.3294   6.3631   6.3739   6.4284   6.6180
  6.6370   6.6747   6.7316   6.7361   6.7853   6.8951   6.9129   6.9628
  7.0317   7.0946   7.1649   7.2796   7.3726   7.4735   7.5175   7.6558
  7.7481  15.1086  23.3640  23.6828  23.8901  44.2535  44.4018  44.5152
 --------------------------------------------------------------
 
          Ground-State Mulliken Net Atomic Charges

     Atom                 Charge (a.u.)
  ----------------------------------------
      1 O                    -0.426640
      2 C                     0.520919
      3 C                     0.350906
      4 O                    -0.799913
      5 O                    -0.600227
      6 C                    -1.390414
      7 H                     0.114668
      8 H                     0.116271
      9 H                     0.154782
     10 H                     0.154918
     11 Li                    0.804730
  ----------------------------------------
  Sum of atomic charges =    -1.000000

  Building new vdw surfaces
         Merz-Kollman RESP Net Atomic Charges

     Atom                 Charge (a.u.)
  ----------------------------------------
      1 O                    -0.452914
      2 C                     0.855711
      3 C                     0.575451
      4 O                    -0.845519
      5 O                    -0.784144
      6 C                    -1.979358
      7 H                     0.022067
      8 H                     0.022067
      9 H                     0.408657
     10 H                     0.408657
     11 Li                    0.769324
  ----------------------------------------
  Sum of atomic charges =    -1.000000

  Related Dipole Moment =     5.0269 (X -2.4672 Y  2.2837 Z -3.7372)

 -----------------------------------------------------------------
                    Cartesian Multipole Moments
 -----------------------------------------------------------------
    Charge (ESU x 10^10)
                -4.8032
    Dipole Moment (Debye)
         X      -2.5828      Y       2.3433      Z      -3.9058
       Tot       5.2361
    Quadrupole Moments (Debye-Ang)
        XX     -75.0537     XY      -9.8446     YY     -39.6421
        XZ     -13.6339     YZ      -8.2198     ZZ     -39.0406
    Octopole Moments (Debye-Ang^2)
       XXX    -117.9168    XXY     -32.7158    XYY     -24.5296
       YYY     -16.9845    XXZ      -4.0358    XYZ      -8.0508
       YYZ     -13.3792    XZZ     -13.6451    YZZ      10.5766
       ZZZ      -3.1961
    Hexadecapole Moments (Debye-Ang^3)
      XXXX    -913.7346   XXXY    -150.3641   XXYY    -181.3346
      XYYY     -95.9334   YYYY    -152.4040   XXXZ    -194.3483
      XXYZ       5.3842   XYYZ     -49.8657   YYYZ     -21.7181
      XXZZ    -215.6222   XYZZ     -13.0786   YYZZ     -35.3739
      XZZZ    -181.8505   YZZZ     -32.0276   ZZZZ    -269.6710
 -----------------------------------------------------------------
 Calculating analytic gradient of the SCF energy
 Gradient of CDS energy
            1           2           3           4           5           6
    1   0.0001913  -0.0012912  -0.0005526   0.0006472   0.0006578   0.0013746
    2   0.0000586  -0.0006653  -0.0005876   0.0008165  -0.0002448   0.0006858
    3   0.0000640  -0.0001324   0.0003228  -0.0005394   0.0008028   0.0001784
            7           8           9          10          11
    1  -0.0002923  -0.0001702  -0.0000923  -0.0002578  -0.0002143
    2   0.0001456  -0.0000613  -0.0002072   0.0000646  -0.0000048
    3  -0.0001444  -0.0003105  -0.0001515   0.0000636  -0.0001534
 Gradient of SCF Energy
            1           2           3           4           5           6
    1  -0.0091519  -0.0099340  -0.0040888   0.0011515   0.0104614   0.0474234
    2  -0.0023243  -0.0125730  -0.0727047  -0.0079440   0.0213424   0.0462239
    3  -0.0038978   0.0081265   0.0885270   0.0109806  -0.0188575  -0.0221266
            7           8           9          10          11
    1  -0.0036997   0.0256371  -0.0098091  -0.0500330   0.0020432
    2   0.0311011  -0.0175777  -0.0296464   0.0374528   0.0066500
    3   0.0188414  -0.0194131  -0.0544326  -0.0008993  -0.0068486
 Max gradient component =       8.853E-02
 RMS gradient           =       3.023E-02
 Computing fast CPCM-SWIG gradient
 Updating gradient with PCM contributions...
 -- total gradient after adding PCM contribution --
---------------------------------------------------
  Atom         X              Y              Z     
---------------------------------------------------
   1      -0.000131      -0.000195       0.000046
   2       0.000080       0.000164       0.000051
   3      -0.000115       0.000045      -0.000063
   4      -0.000018      -0.000099       0.000041
   5       0.000145       0.000011       0.000022
   6       0.000005       0.000018      -0.000023
   7       0.000005       0.000005      -0.000031
   8       0.000021       0.000007       0.000020
   9       0.000010       0.000022      -0.000017
  10       0.000013       0.000014      -0.000014
  11      -0.000014       0.000008      -0.000032
---------------------------------------------------
 Number of fixed atoms: 0
 Gradient time:  CPU 251.07 s  wall 10.74 s
 ----------------------------------------------------------------
             Standard Nuclear Orientation (Angstroms)
    I     Atom           X                Y                Z
 ----------------------------------------------------------------
    1      O       0.5331928974     0.5145403116    -0.4435448826
    2      C      -0.7021949805    -0.0476091126    -0.6748708300
    3      C       1.4294954636     0.0651473345     0.7914634320
    4      O      -1.2340004762     0.4653456164    -1.7224510113
[...]
    11   -3.874122243110533e-04  -2.435653368268374e-04   3.122151783009511e-04


    11 Order 1, Length 33
    Atom      X          Y          Z
     1   -9.508546675056028e-03   4.630145392705266e-03  -1.220778615401567e-02
     2    8.722717675163541e-03  -1.148905476403832e-02   1.812765025574590e-02
     3    3.018097462540035e-03   9.417404956332967e-04   1.864220907148806e-03
     4   -3.241913556982292e-02  -1.610004309226904e-02  -7.773794349467941e-04
     5   -9.013401718583319e-04   2.522360455436314e-03  -4.291675123162247e-03
     6   -8.987873075722486e-04  -2.209898545715391e-03   2.449915783623832e-03
     7   -1.621317247819239e-04   1.536890775899455e-04  -4.291849425053778e-04
     8   -9.635420082554865e-05   1.304116190003761e-04  -6.129206268640095e-05
     9   -6.583155419867873e-05   2.197417373943317e-04  -1.320513165651838e-04
    10   -4.719571829696007e-06   1.660433501025855e-04  -3.874122243110533e-04
    11    3.231604121240016e-02   2.103486546779324e-02  -4.155003023212954e-03

Order 1, Length 33
    Atom      X          Y          Z
     1   -4.155682348720753e-06  -1.234271978259744e-02   1.435063617591223e-02
     2   -1.016316820121284e-02  -1.373880975543169e-02   1.453018615619531e-02
     3    6.760316702866517e-03  -8.662437951347983e-04   4.831148248643494e-03
     4   -1.661882447863072e-02  -1.527363172391915e-02   8.665464296890246e-04
     5    1.838013013463269e-03   4.021845540179169e-03  -2.936862968507889e-03
     6   -1.660309333036465e-03  -1.928605717955872e-03   6.416667171536301e-04
     7   -2.851543140693866e-04   3.718645306456101e-04  -4.365173688791403e-04
     8   -3.787076819316576e-04   3.804856530419576e-04  -1.107758409420993e-03
     9   -2.942255919952537e-04   2.021740121910515e-04  -4.547898090620486e-04
    10   -2.286384998392027e-04  -2.458645407886184e-06  -2.435653368268374e-04
    11    2.103486546779324e-02   3.917610328232782e-02  -3.004069176662272e-02

Order 1, Length 33
    Atom      X          Y          Z
     1   -6.321445604908757e-03   1.786868350960433e-02  -2.829817776431221e-02
     2    1.643248771530166e-02   1.364580943109271e-02  -8.517576058799068e-04
     3   -5.496910013711676e-03   4.639992172164500e-04  -5.812044830664312e-03
     4   -1.101876396385265e-04   1.227697333032954e-03  -6.257112874446110e-03
     5   -3.468053798486907e-03  -2.510833836488053e-03   1.109651998698810e-03
     6    1.776697689010195e-03   1.881744178001885e-04   6.371549125080612e-04
     7    5.595028030308543e-04  -7.113473234668217e-04   7.894299285853666e-04
     8    1.458437543791191e-04  -1.335813077851537e-04   7.245767587122884e-04
     9    2.800936086181451e-04   1.029497472013767e-04   1.505232360437046e-04
    10    3.569719643638091e-04  -1.008601798519054e-04   3.122151783009511e-04
    11   -4.155003023212954e-03  -3.004069176662272e-02   3.749554626664741e-02




 # Finishing finite difference calculation for IDERIV #
 ######################################################
 ######################################################
 Requested basis set is def2-TZVPPD
 There are 119 shells and 321 basis functions
 **********************************************************************
 **                                                                  **
 **                       VIBRATIONAL ANALYSIS                       **
 **                       --------------------                       **
 **                                                                  **
 **        VIBRATIONAL FREQUENCIES (CM**-1) AND NORMAL MODES         **
 **     FORCE CONSTANTS (mDYN/ANGSTROM) AND REDUCED MASSES (AMU)     **
 **                  INFRARED INTENSITIES (KM/MOL)                   **
 **                                                                  **
 **********************************************************************
 

 Mode:                 1                      2                      3
 Frequency:      -433.63                  36.95                  52.23
 Force Cnst:      0.1913                 0.0032                 0.0037
 Red. Mass:       1.7266                 3.9614                 2.2837
 IR Active:          YES                    YES                    YES
 IR Intens:      797.918                 19.796                 56.488
 Raman Active:       YES                    YES                    YES
               X      Y      Z        X      Y      Z        X      Y      Z
 O          0.043 -0.019  0.052   -0.159  0.260  0.227   -0.047  0.077  0.054
 C         -0.002 -0.020  0.023   -0.025  0.035  0.036    0.010 -0.013 -0.014
 C         -0.111  0.022 -0.106    0.031 -0.074 -0.073   -0.077  0.140  0.121
 O          0.042  0.007  0.028    0.078 -0.103 -0.082    0.011 -0.029 -0.024
 O          0.003 -0.012  0.011   -0.003 -0.009 -0.004    0.051 -0.079 -0.065
 C         -0.019  0.093 -0.141    0.015 -0.030 -0.055    0.085 -0.139 -0.097
 H         -0.027 -0.001  0.023    0.046 -0.018 -0.414   -0.334  0.087  0.354
 H         -0.023 -0.022 -0.013    0.181 -0.367  0.119   -0.008  0.488  0.101
 H         -0.006 -0.421  0.431    0.132 -0.335  0.253    0.289  0.052 -0.337
 H         -0.038 -0.413  0.632   -0.022  0.133 -0.456   -0.046 -0.439  0.030
 Li         0.039  0.013  0.021    0.107 -0.136 -0.091   -0.049  0.063  0.044
 TransDip  -0.613 -0.584  0.318    0.030 -0.117 -0.075   -0.077  0.184  0.135

 Mode:                 4                      5                      6
 Frequency:       141.61                 152.77                 296.01
 Force Cnst:      0.1042                 0.0617                 0.1678
 Red. Mass:       8.8201                 4.4841                 3.2510
 IR Active:          YES                    YES                    YES
 IR Intens:       57.592                 31.745                161.938
 Raman Active:       YES                    YES                    YES
               X      Y      Z        X      Y      Z        X      Y      Z
 O          0.014 -0.064  0.001   -0.036 -0.150  0.125   -0.056 -0.002  0.016
 C          0.016 -0.059 -0.033   -0.064 -0.049  0.014   -0.054  0.004 -0.031
 C          0.035 -0.045 -0.036    0.052  0.029  0.052    0.249  0.005  0.120
 O          0.200 -0.278 -0.233    0.080  0.107  0.020   -0.060 -0.011 -0.056
 O         -0.167  0.198  0.152   -0.190 -0.083 -0.103   -0.152 -0.006 -0.094
 C          0.024 -0.012 -0.082   -0.004  0.167 -0.205    0.196  0.078  0.041
 H          0.046 -0.044 -0.058    0.141  0.008  0.191    0.273  0.032  0.010
 H          0.088 -0.077  0.015    0.157  0.068  0.135    0.180 -0.026  0.063
 H          0.075 -0.089 -0.009    0.020  0.350 -0.410    0.129 -0.128  0.288
 H          0.010  0.071 -0.268    0.010  0.310 -0.407    0.222 -0.254  0.673
 Li        -0.267  0.545  0.486    0.315 -0.071  0.212   -0.171 -0.053 -0.068
 TransDip  -0.093  0.164  0.153    0.136 -0.041  0.111    0.192 -0.124  0.338

 Mode:                 7                      8                      9
 Frequency:       363.04                 417.49                 514.81
 Force Cnst:      0.0898                 0.6862                 1.2197
 Red. Mass:       1.1560                 6.6824                 7.8109
 IR Active:          YES                    YES                    YES
 IR Intens:       27.527                156.331                302.435
 Raman Active:       YES                    YES                    YES
               X      Y      Z        X      Y      Z        X      Y      Z
 O         -0.027  0.044  0.028   -0.098  0.068 -0.169   -0.038 -0.055  0.031
 C         -0.004  0.015  0.010   -0.125  0.002 -0.101    0.079  0.132 -0.110
 C          0.010 -0.055 -0.041    0.071  0.080 -0.034    0.068 -0.276  0.406
 O          0.008 -0.013 -0.009   -0.264 -0.102 -0.070   -0.098  0.047 -0.133
 O          0.018  0.008  0.016    0.107  0.014  0.064    0.258  0.147  0.013
 C         -0.016 -0.027 -0.017    0.079 -0.006  0.073   -0.218  0.109 -0.294
 H          0.151 -0.034 -0.096   -0.038  0.098 -0.141    0.001 -0.244  0.272
 H         -0.072 -0.182 -0.076   -0.015  0.125 -0.128   -0.002 -0.196  0.310
 H         -0.277  0.488 -0.527    0.113 -0.251  0.334   -0.115 -0.255  0.096
 H          0.089 -0.150  0.536    0.049 -0.138  0.199   -0.206 -0.083  0.034
 Li         0.034  0.009  0.026    0.523 -0.059  0.467   -0.111 -0.147  0.098
 TransDip  -0.016  0.165  0.025    0.309 -0.027  0.253    0.335 -0.143  0.421

 Mode:                10                     11                     12
 Frequency:       554.23                 718.56                 794.04
 Force Cnst:      1.3228                 4.1467                 3.2056
 Red. Mass:       7.3090                13.6308                 8.6294
 IR Active:          YES                    YES                    YES
 IR Intens:      212.603                 10.373                512.371
 Raman Active:       YES                    YES                    YES
               X      Y      Z        X      Y      Z        X      Y      Z
 O         -0.129 -0.049 -0.036    0.428  0.248  0.011    0.141 -0.240  0.408
 C         -0.048 -0.053  0.030    0.244  0.100  0.060   -0.111  0.051 -0.153
 C          0.069 -0.086  0.161   -0.028 -0.112  0.120   -0.148  0.051 -0.167
 O         -0.047 -0.048  0.026   -0.289 -0.384  0.264   -0.285 -0.049 -0.153
 O          0.004 -0.087  0.113   -0.268  0.098 -0.326    0.151  0.135 -0.053
 C         -0.030  0.030 -0.059   -0.117  0.016 -0.108    0.178  0.013  0.118
 H          0.037 -0.071  0.094   -0.073 -0.111  0.080    0.198 -0.022  0.275
 H          0.031 -0.048  0.113   -0.074 -0.105  0.083    0.223 -0.151  0.216
 H          0.007 -0.107  0.090   -0.102  0.026 -0.121    0.176  0.253 -0.141
 H         -0.023 -0.050  0.084   -0.103  0.045 -0.117    0.174  0.169 -0.162
 Li         0.399  0.647 -0.516    0.174  0.102  0.004    0.009  0.119 -0.142
 TransDip   0.361  0.283 -0.087    0.081  0.061 -0.016   -0.600 -0.036 -0.406

 Mode:                13                     14                     15
 Frequency:       819.53                 845.30                 980.68
 Force Cnst:      0.4576                 3.5575                 6.4446
 Red. Mass:       1.1564                 8.4503                11.3733
 IR Active:          YES                    YES                    YES
 IR Intens:        0.391                 35.642                448.256
 Raman Active:       YES                    YES                    YES
               X      Y      Z        X      Y      Z        X      Y      Z
 O         -0.005  0.009  0.011    0.074 -0.124 -0.098    0.452  0.295 -0.029
 C         -0.029  0.046  0.035   -0.310  0.515  0.410   -0.396 -0.178 -0.076
 C          0.036 -0.061 -0.050   -0.015  0.025  0.020   -0.063 -0.134  0.123
 O          0.006 -0.013 -0.012    0.082 -0.136 -0.108   -0.039  0.172 -0.245
 O          0.009 -0.011 -0.010    0.085 -0.140 -0.112   -0.085 -0.252  0.252
 C          0.013 -0.019 -0.014   -0.010  0.017  0.013    0.033  0.049 -0.037
 H         -0.389 -0.148  0.293    0.266  0.067 -0.114   -0.023 -0.164  0.248
 H          0.200  0.466 -0.035   -0.155 -0.251 -0.032    0.004 -0.223  0.214
 H         -0.465 -0.064  0.118    0.302  0.015 -0.039    0.097  0.105 -0.096
 H          0.280  0.374  0.127   -0.181 -0.214 -0.117    0.079  0.135 -0.074
 Li        -0.002  0.003  0.001   -0.008  0.014  0.011   -0.040 -0.017 -0.009
 TransDip  -0.019  0.006  0.001   -0.081  0.135  0.108   -0.611 -0.261 -0.134

 Mode:                16                     17                     18
 Frequency:      1146.01                1158.24                1280.61
 Force Cnst:      2.2487                 1.1579                 2.3086
 Red. Mass:       2.9060                 1.4649                 2.3893
 IR Active:          YES                    YES                    YES
 IR Intens:      236.649                  1.885                507.836
 Raman Active:       YES                    YES                    YES
               X      Y      Z        X      Y      Z        X      Y      Z
 O         -0.068  0.017 -0.076   -0.018  0.029  0.020    0.013 -0.036  0.046
 C         -0.024  0.003 -0.021   -0.000 -0.001 -0.001    0.207  0.034  0.115
 C         -0.207 -0.154  0.052    0.062 -0.119 -0.090    0.012 -0.012  0.008
 O          0.044 -0.028  0.069    0.002 -0.002  0.001   -0.094  0.056 -0.141
 O          0.016  0.036 -0.033   -0.000  0.002  0.000   -0.057 -0.079  0.056
 C          0.239  0.130  0.005   -0.043  0.086  0.065    0.031  0.045 -0.004
 H         -0.405 -0.182  0.085    0.023 -0.219  0.470   -0.603  0.037 -0.506
 H         -0.314 -0.347  0.021   -0.123  0.342 -0.353   -0.377  0.057 -0.331
 H          0.388  0.174 -0.036    0.460  0.117 -0.063    0.103  0.055 -0.026
 H          0.371  0.297  0.044   -0.313 -0.311 -0.100    0.015 -0.006  0.026
 Li        -0.004 -0.012  0.012   -0.001  0.001  0.001    0.012  0.003  0.005
 TransDip  -0.447 -0.161 -0.132   -0.002 -0.034 -0.028    0.632  0.147  0.316

 Mode:                19                     20                     21
 Frequency:      1283.31                1370.05                1437.39
 Force Cnst:      1.0726                 2.0494                 1.3434
 Red. Mass:       1.1054                 1.8531                 1.1036
 IR Active:          YES                    YES                    YES
 IR Intens:       19.114                208.460                  5.862
 Raman Active:       YES                    YES                    YES
               X      Y      Z        X      Y      Z        X      Y      Z
 O          0.009 -0.014 -0.019   -0.042  0.026 -0.064    0.005 -0.002  0.006
 C         -0.022 -0.003 -0.012    0.162  0.019  0.099   -0.001 -0.001  0.001
 C          0.016 -0.027 -0.023   -0.093 -0.015 -0.051   -0.037 -0.033  0.013
 O          0.010 -0.006  0.015   -0.053  0.033 -0.081   -0.001  0.000 -0.001
 O          0.006  0.008 -0.006   -0.037 -0.041  0.024    0.001  0.001 -0.000
 C         -0.035  0.047  0.042    0.018 -0.004  0.019   -0.069 -0.033 -0.011
 H         -0.489 -0.003 -0.323    0.423 -0.078  0.521    0.305  0.056 -0.310
 H          0.567  0.029  0.432    0.479 -0.163  0.460    0.078  0.431 -0.013
 H          0.183  0.149 -0.108    0.059  0.010  0.002    0.543 -0.056 -0.067
 H         -0.164 -0.199  0.067    0.045  0.034  0.022    0.281  0.386  0.278
 Li        -0.001 -0.001 -0.001    0.009 -0.009  0.018   -0.000  0.000 -0.000
 TransDip  -0.133  0.042 -0.001    0.254 -0.134  0.362    0.064  0.004  0.044

 Mode:                22                     23                     24
 Frequency:      1489.65                1705.73                3061.56
 Force Cnst:      1.7046                21.6511                 5.8277
 Red. Mass:       1.3038                12.6302                 1.0553
 IR Active:          YES                    YES                    YES
 IR Intens:       14.295                976.247                 92.692
 Raman Active:       YES                    YES                    YES
               X      Y      Z        X      Y      Z        X      Y      Z
 O         -0.001  0.003 -0.005    0.011  0.039 -0.041    0.002 -0.000  0.002
 C          0.005 -0.000  0.004   -0.163 -0.584  0.610   -0.001 -0.002  0.001
 C         -0.087 -0.081  0.036    0.031 -0.007  0.031   -0.035 -0.044  0.033
 O         -0.001  0.001 -0.002   -0.058  0.082 -0.146    0.000  0.000  0.000
 O         -0.000 -0.001  0.001    0.157  0.312 -0.273    0.000  0.001 -0.001
 C          0.096  0.047  0.013   -0.012 -0.003 -0.006   -0.009 -0.002 -0.004
 H          0.389  0.035 -0.395   -0.085 -0.014 -0.071   -0.055  0.665  0.124
 H          0.079  0.550  0.015   -0.097  0.007 -0.056    0.443 -0.138 -0.534
 H         -0.410  0.074  0.063   -0.015  0.001 -0.012    0.011  0.099  0.088
 H         -0.187 -0.300 -0.230   -0.015  0.000 -0.013    0.106 -0.063 -0.040
 Li         0.000 -0.000  0.001    0.027  0.029 -0.016   -0.000  0.000 -0.000
 TransDip  -0.109 -0.042 -0.032   -0.210 -0.684  0.700   -0.216 -0.199  0.095

 Mode:                25                     26                     27
 Frequency:      3105.96                3119.92                3176.23
 Force Cnst:      5.9899                 6.3730                 6.6277
 Red. Mass:       1.0539                 1.1112                 1.1150
 IR Active:          YES                    YES                    YES
 IR Intens:       33.592                 34.389                119.709
 Raman Active:       YES                    YES                    YES
               X      Y      Z        X      Y      Z        X      Y      Z
 O         -0.000 -0.000  0.000   -0.000  0.000  0.000   -0.000  0.000  0.000
 C          0.000  0.000 -0.000   -0.000 -0.000  0.000   -0.000  0.000  0.000
 C          0.010  0.010 -0.007    0.039 -0.068 -0.053   -0.009  0.016  0.012
 O         -0.000 -0.000 -0.000    0.000 -0.000 -0.000   -0.000  0.000  0.000
 O         -0.000 -0.000  0.000   -0.000  0.000  0.000    0.000 -0.000 -0.000
 C         -0.057 -0.017 -0.021   -0.009  0.016  0.012   -0.041  0.068  0.054
 H          0.009 -0.116 -0.021   -0.042  0.692  0.121    0.010 -0.153 -0.029
 H         -0.086  0.026  0.104   -0.426  0.116  0.503    0.097 -0.029 -0.114
 H          0.062  0.512  0.464   -0.020 -0.120 -0.106   -0.084 -0.497 -0.464
 H          0.572 -0.337 -0.205    0.124 -0.066 -0.042    0.578 -0.324 -0.183
 Li         0.000 -0.000  0.000    0.000 -0.000 -0.000   -0.000  0.000  0.000
 TransDip  -0.139  0.007 -0.123    0.079 -0.136 -0.103   -0.148  0.249  0.197

 STANDARD THERMODYNAMIC QUANTITIES AT   298.15 K  AND     1.00 ATM

   This Molecule has  1 Imaginary Frequencies
   Zero point vibrational energy:       42.918 kcal/mol

   Atom    1 Element O  Has Mass   15.99491
   Atom    2 Element C  Has Mass   12.00000
   Atom    3 Element C  Has Mass   12.00000
   Atom    4 Element O  Has Mass   15.99491
   Atom    5 Element O  Has Mass   15.99491
   Atom    6 Element C  Has Mass   12.00000
   Atom    7 Element H  Has Mass    1.00783
   Atom    8 Element H  Has Mass    1.00783
   Atom    9 Element H  Has Mass    1.00783
   Atom   10 Element H  Has Mass    1.00783
   Atom   11 Element Li Has Mass    7.01600
   Molecular Mass:    95.032050 amu
   Principal axes and moments of inertia in amu*Bohr^2:
                             1           2           3
    Eigenvalues --      293.07886   877.25862  1146.56310
          X               0.86089     0.27903    -0.42546
          Y               0.12462     0.69509     0.70804
          Z               0.49329    -0.66256     0.56362
   Rotational Symmetry Number is   1
   The Molecule is an Asymmetric Top
   Translational Enthalpy:        0.889 kcal/mol
   Rotational Enthalpy:           0.889 kcal/mol
   Vibrational Enthalpy:         45.997 kcal/mol
   gas constant (RT):             0.592 kcal/mol
   Translational Entropy:        39.566  cal/mol.K
   Rotational Entropy:           27.180  cal/mol.K
   Vibrational Entropy:          21.349  cal/mol.K

   Total Enthalpy:               48.367 kcal/mol
   Total Entropy:                88.095  cal/mol.K
Archival summary:
1\1\n0023.lr6\FREQ\ProcedureUnspecified\BasisUnspecified\33i14(1-,1)\ewcspott\WedMay2009:02:402020WedMay2009:02:402020\0\\#,FREQ,ProcedureUnspecified,BasisUnspecified,\\-1,1\O\C,1,1.37668\O,2,1.23034,1,121.292\O,2,1.28194,1,110.218,3,-179.983,0\C,1,1.59155,2,121.332,3,0.173696,0\H,5,1.09225,1,100.529,2,56.0995,0\H,5,1.09238,1,100.447,2,-56.392,0\C,5,1.43946,1,112.336,2,179.835,0\H,8,1.089,5,118.767,1,-104.955,0\H,8,1.08914,5,118.723,1,104.222,0\Li,1,1.85148,2,87.64,3,179.854,0\\\@

 Total job time:  3861.30s(wall), 105046.41s(cpu) 
 Wed May 20 09:02:40 2020

        *************************************************************
        *                                                           *
        *  Thank you very much for using Q-Chem.  Have a nice day.  *
        *                                                           *
        *************************************************************


