
Running Job 1 of 1 mol.qin
qchem mol.qin_228643.0 /tmp/scratch/ 0
/clusterfs/mp/software/qchem/exe/qcprog.exe_s mol.qin_228643.0 /tmp/scratch/
                  Welcome to Q-Chem
     A Quantum Leap Into The Future Of Chemistry


 Q-Chem 5.2, Q-Chem, Inc., Pleasanton, CA (2019)

 Yihan Shao,  Zhengting Gan,  E. Epifanovsky,  A. T. B. Gilbert,  M. Wormit,  
 J. Kussmann,  A. W. Lange,  A. Behn,  Jia Deng,  Xintian Feng,  D. Ghosh,  
 M. Goldey,  P. R. Horn,  L. D. Jacobson,  I. Kaliman,  T. Kus,  A. Landau,  
 Jie Liu,  E. I. Proynov,  R. M. Richard,  R. P. Steele,  E. J. Sundstrom,  
 H. L. Woodcock III,  P. M. Zimmerman,  D. Zuev,  B. Alam,  B. Albrecht,  
 E. Alguire,  S. A. Baeppler,  D. Barton,  Z. Benda,  Y. A. Bernard,  
 E. J. Berquist,  K. B. Bravaya,  H. Burton,  K. Carter-Fenk,  D. Casanova,  
 Chun-Min Chang,  Yunqing Chen,  A. Chien,  K. D. Closser,  M. P. Coons,  
 S. Coriani,  S. Dasgupta,  A. L. Dempwolff,  M. Diedenhofen,  Hainam Do,  
 R. G. Edgar,  Po-Tung Fang,  S. Faraji,  S. Fatehi,  Qingguo Feng,  
 J. Fosso-Tande,  J. Gayvert,  Qinghui Ge,  A. Ghysels,  G. Gidofalvi,  
 J. Gomes,  J. Gonthier,  A. Gunina,  D. Hait,  M. W. D. Hanson-Heine,  
 P. H. P. Harbach,  A. W. Hauser,  M. F. Herbst,  J. E. Herr,  
 E. G. Hohenstein,  Z. C. Holden,  Kerwin Hui,  B. C. Huynh,  T.-C. Jagau,  
 Hyunjun Ji,  B. Kaduk,  K. Khistyaev,  Jaehoon Kim,  P. Klunzinger,  K. Koh,  
 D. Kosenkov,  L. Koulias,  T. Kowalczyk,  C. M. Krauter,  A. Kunitsa,  
 Ka Un Lao,  A. Laurent,  K. V. Lawler,  Joonho Lee,  D. Lefrancois,  
 S. Lehtola,  D. S. Levine,  Yi-Pei Li,  You-Sheng Lin,  Fenglai Liu,  
 Kuan-Yu Liu,  E. Livshits,  M. Loipersberger,  A. Luenser,  P. Manohar,  
 E. Mansoor,  S. F. Manzer,  Shan-Ping Mao,  Yuezhi Mao,  N. Mardirossian,  
 A. V. Marenich,  T. Markovich,  L. A. Martinez-Martinez,  S. A. Maurer,  
 N. J. Mayhall,  S. C. McKenzie,  J.-M. Mewes,  P. Morgante,  A. F. Morrison,  
 J. W. Mullinax,  K. Nanda,  T. S. Nguyen-Beck,  R. Olivares-Amaya,  
 J. A. Parkhill,  S. K. Paul,  Zheng Pei,  T. M. Perrine,  F. Plasser,  
 P. Pokhilko,  S. Prager,  A. Prociuk,  E. Ramos,  B. Rana,  D. R. Rehn,  
 F. Rob,  M. Scheurer,  M. Schneider,  N. Sergueev,  S. M. Sharada,  
 S. Sharma,  D. W. Small,  T. Stauch,  C. J. Stein,  T. Stein,  Yu-Chuan Su,  
 S. P. Veccham,  A. J. W. Thom,  A. Tkatchenko,  T. Tsuchimochi,  
 N. M. Tubman,  L. Vogt,  M. L. Vidal,  O. Vydrov,  M. A. Watson,  J. Wenzel,  
 M. de Wergifosse,  T. A. Wesolowski,  A. White,  J. Witte,  A. Yamada,  
 Jun Yang,  K. Yao,  S. Yeganeh,  S. R. Yost,  Zhi-Qiang You,  A. Zech,  
 Igor Ying Zhang,  Xing Zhang,  Yan Zhao,  Ying Zhu,  B. R. Brooks,  
 G. K. L. Chan,  C. J. Cramer,  M. S. Gordon,  W. J. Hehre,  A. Klamt,  
 M. W. Schmidt,  C. D. Sherrill,  D. G. Truhlar,  A. Aspuru-Guzik,  R. Baer,  
 A. T. Bell,  N. A. Besley,  Jeng-Da Chai,  A. E. DePrince, III,  
 R. A. DiStasio Jr.,  A. Dreuw,  B. D. Dunietz,  T. R. Furlani,  
 Chao-Ping Hsu,  Yousung Jung,  Jing Kong,  D. S. Lambrecht,  WanZhen Liang,  
 C. Ochsenfeld,  V. A. Rassolov,  L. V. Slipchenko,  J. E. Subotnik,  
 T. Van Voorhis,  J. M. Herbert,  A. I. Krylov,  P. M. W. Gill,  M. Head-Gordon

 Contributors to earlier versions of Q-Chem not listed above: 
 R. D. Adamson,  B. Austin,  J. Baker,  G. J. O. Beran,  K. Brandhorst,  
 S. T. Brown,  E. F. C. Byrd,  A. K. Chakraborty,  C.-L. Cheng,  
 Siu Hung Chien,  D. M. Chipman,  D. L. Crittenden,  H. Dachsel,  
 R. J. Doerksen,  A. D. Dutoi,  L. Fusti-Molnar,  W. A. Goddard III,  
 A. Golubeva-Zadorozhnaya,  S. R. Gwaltney,  G. Hawkins,  A. Heyden,  
 S. Hirata,  G. Kedziora,  F. J. Keil,  C. Kelley,  Jihan Kim,  R. A. King,  
 R. Z. Khaliullin,  P. P. Korambath,  W. Kurlancheek,  A. M. Lee,  M. S. Lee,  
 S. V. Levchenko,  Ching Yeh Lin,  D. Liotard,  R. C. Lochan,  I. Lotan,  
 P. E. Maslen,  N. Nair,  D. P. O'Neill,  D. Neuhauser,  E. Neuscamman,  
 C. M. Oana,  R. Olson,  B. Peters,  R. Peverati,  P. A. Pieniazek,  
 Y. M. Rhee,  J. Ritchie,  M. A. Rohrdanz,  E. Rosta,  N. J. Russ,  
 H. F. Schaefer III,  N. E. Schultz,  N. Shenvi,  A. C. Simmonett,  A. Sodt,  
 D. Stuck,  K. S. Thanthiriwatte,  V. Vanovschi,  Tao Wang,  A. Warshel,  
 C. F. Williams,  Q. Wu,  X. Xu,  W. Zhang

 Please cite Q-Chem as follows:
 Y. Shao et al., Mol. Phys. 113, 184-215 (2015)
 DOI: 10.1080/00268976.2014.952696

 Q-Chem 5.2.2 for Intel X86 EM64T Linux

 Parts of Q-Chem use Armadillo 8.300.2 (Tropical Shenanigans).
 http://arma.sourceforge.net/

 Q-Chem begins on Sun May 17 18:26:10 2020  

Host: 
0

     Scratch files written to /tmp/scratch//
 Nov2519 |scratch|qcdevops|jenkins|workspace|build_RNUM 6829   
Processing $rem in /clusterfs/mp/software/qchem/config/preferences:
	 MEM_TOTAL  96000 
NAlpha2: 50
NElect   49
Mult     2
Symmetry turned off for PCM/SM12/SMD calculation

Checking the input file for inconsistencies... 	...done.

--------------------------------------------------------------
User input:
--------------------------------------------------------------
$molecule
0 2
O      0.5304065220     -0.0265723826     -0.8268946928
C     -0.6669531272      0.5365184776     -0.4819080819
C      1.8580043798     -0.5334526641      0.9728291698
O     -1.2218927332      0.8706232989     -1.5889473251
O     -1.0599597951      0.6475077541      0.6642512962
C      2.2980685811      0.7337063757      1.0358122904
H      2.4111853630     -1.2931688715      0.4304176551
H      0.9918176028     -0.8563923599      1.5379169265
H      1.7630701508      1.4883707494      1.6033166067
H      3.1900372448      1.0474359352      0.5015115399
Li      0.3465056450      0.8537004183     -2.5882851196
$end

$rem
job_type = freq
basis = def2-tzvppd
max_scf_cycles = 200
gen_scfman = true
xc_grid = 3
scf_algorithm = diis
resp_charges = true
symmetry = false
sym_ignore = true
method = wb97xv
solvent_method = smd
ideriv = 1
thresh = 14
$end

$smx
solvent other
$end
--------------------------------------------------------------
 ----------------------------------------------------------------
             Standard Nuclear Orientation (Angstroms)
    I     Atom           X                Y                Z
 ----------------------------------------------------------------
    1      O       0.5304065220    -0.0265723826    -0.8268946928
    2      C      -0.6669531272     0.5365184776    -0.4819080819
    3      C       1.8580043798    -0.5334526641     0.9728291698
    4      O      -1.2218927332     0.8706232989    -1.5889473251
    5      O      -1.0599597951     0.6475077541     0.6642512962
    6      C       2.2980685811     0.7337063757     1.0358122904
    7      H       2.4111853630    -1.2931688715     0.4304176551
    8      H       0.9918176028    -0.8563923599     1.5379169265
    9      H       1.7630701508     1.4883707494     1.6033166067
   10      H       3.1900372448     1.0474359352     0.5015115399
   11      Li      0.3465056450     0.8537004183    -2.5882851196
 ----------------------------------------------------------------
 Nuclear Repulsion Energy =         243.36024597 hartrees
 There are       25 alpha and       24 beta electrons
 Requested basis set is def2-TZVPPD
 There are 119 shells and 321 basis functions

 Total QAlloc Memory Limit  96000 MB
 Mega-Array Size       188 MB
 MEM_STATIC part       192 MB
 
 Citation of the SMD model:
 Marenich, A.V.; Cramer, C.J.; Truhlar, D.G.
 J. Phys. Chem. B 2009, 113, 6378-6396.
 iSolventCode=           0
 Solvent: other                                                           
 
 vradii
            1           2           3           4           5           6
    1   2.2940000   1.8500000   1.8500000   2.2940000   2.2940000   1.8500000
            7           8           9          10          11
    1   1.2000000   1.2000000   1.2000000   1.2000000   2.1476001
 Changing PCM_VDW_RADII to SMD_RADIUS
 Discretize the solute cavity surface with Lebedev spheres
	Using 110 Lebedev grid points for each H atom
	Using 194 Lebedev grid points for other atoms
	Atomic van der Waals radii will be scaled by 1.20
 Remove points where switching function is < 1.0e-08
 Keep 840 surface tesserae and discard 958 interior tesserae
 Molecular Surface Area = 163.720 Angst**2

                       Distance Matrix (Angstroms)
             O (  1)   C (  2)   C (  3)   O (  4)   O (  5)   C (  6)
   C (  2)  1.367391
   C (  3)  2.293131  3.104273
   O (  4)  2.110980  1.282622  4.244985
   O (  5)  2.281921  1.216739  3.162974  2.270002
   C (  6)  2.678121  3.336722  1.342876  4.392976  3.379622
   H (  7)  2.592765  3.695271  1.085075  4.686052  3.983686  2.118377
   H (  8)  2.548300  2.961657  1.083464  4.202425  2.689758  2.118210
   H (  9)  3.117762  3.340539  2.119976  4.413860  3.091665  1.085266
   H ( 10)  3.160980  4.013044  2.120297  4.885326  4.271873  1.086053
   Li( 11)  1.977674  2.358925  4.109788  1.859795  3.549599  4.117897
             H (  7)   H (  8)   H (  9)   H ( 10)
   H (  8)  1.852548
   H (  9)  3.087508  2.469215
   H ( 10)  2.467812  3.087210  1.855972
   Li( 11)  4.240816  4.512913  4.469786  4.203576
 
 A cutoff of  1.0D-14 yielded   6771 shell pairs
 There are     49831 function pairs (     63376 Cartesian)
 Smallest overlap matrix eigenvalue = 7.20E-06
 Guess from superposition of atomic densities
 Warning:  Energy on first SCF cycle will be non-variational
 SAD guess density has 49.000000 electrons

 -----------------------------------------------------------------------
  General SCF calculation program by
  Eric Jon Sundstrom, Paul Horn, Yuezhi Mao, Dmitri Zuev, Alec White,
  David Stuck, Shaama M.S., Shane Yost, Joonho Lee, David Small,
  Daniel Levine, Susi Lehtola, Hugh Burton, Evgeny Epifanovsky,
  Bang C. Huynh
 -----------------------------------------------------------------------
 Exchange:     0.1670 Hartree-Fock + 1.0000 wB97X-V + LR-HF
 Correlation:  1.0000 wB97X-V
 Using SG-3 standard quadrature grid
 Nonlocal Correlation:  VV10 with C = 0.0100 and b = 6.00 and scale = 1.00000
 Grid used for NLC:  SG-1 standard quadrature
 
 Citation of the SMD model:
 Marenich, A.V.; Cramer, C.J.; Truhlar, D.G.
 J. Phys. Chem. B 2009, 113, 6378-6396.
 iSolventCode=           0
 Solvent: other                                                           
 
 vradii
            1           2           3           4           5           6
    1   2.2940000   1.8500000   1.8500000   2.2940000   2.2940000   1.8500000
            7           8           9          10          11
    1   1.2000000   1.2000000   1.2000000   1.2000000   2.1476001
 using 32 threads for integral computing
 -------------------------------------------------------
 OpenMP Integral computing Module                
 Release: version 1.0, May 2013, Q-Chem Inc. Pittsburgh 
 -------------------------------------------------------
 using 32 threads for integral computing
 -------------------------------------------------------
 OpenMP Integral computing Module                
 Release: version 1.0, May 2013, Q-Chem Inc. Pittsburgh 
 -------------------------------------------------------
 -------------------------------------------------------
 OpenMP BLAS3 based DFT computing Module                
 Release: version 1.0, May 2013, Q-Chem Inc. Pittsburgh 
 -------------------------------------------------------
 -------------------------------------------------------
 OpenMP BLAS3 based DFT computing Module                
 Release: version 1.0, May 2013, Q-Chem Inc. Pittsburgh 
 -------------------------------------------------------
 -------------------------------------------------------
 OpenMP BLAS3 based DFT computing Module                
 Release: version 1.0, May 2013, Q-Chem Inc. Pittsburgh 
 -------------------------------------------------------
 A unrestricted SCF calculation will be
 performed using DIIS
 SCF converges when DIIS error is below 1.0e-08
 ---------------------------------------
  Cycle       Energy         DIIS error
 ---------------------------------------
    1    -350.5976559101      1.18e-02  
    2    -349.6996408027      2.38e-03  
    3    -349.6690883905      2.83e-03  
    4    -349.9372698034      2.42e-04  
    5    -349.9402202648      2.25e-04  
    6    -349.9431190739      7.81e-05  
    7    -349.9447416373      5.63e-05  
    8    -349.9460900592      3.81e-05  
    9    -349.9466409934      2.20e-05  
   10    -349.9468419758      1.23e-05  
   11    -349.9469168887      8.03e-06  
   12    -349.9469474287      3.52e-06  
   13    -349.9469548473      1.63e-06  
   14    -349.9469562793      6.46e-07  
   15    -349.9469564616      2.73e-07  
   16    -349.9469564882      1.55e-07  
   17    -349.9469564961      8.67e-08  
   18    -349.9469564989      3.23e-08  
   19    -349.9469564994      1.94e-08  
   20    -349.9469564996      9.17e-09  Convergence criterion met
 ---------------------------------------
 SCF time:   CPU 2007.80s  wall 75.00s 
<S^2> =          0.766259396
(3)  G-ENP(liq) elect-nuc-pol free energy of system     -349.946956500 a.u.
(4)  G-CDS(liq) cavity-dispersion-solvent structure 
     free energy                                               -1.6425 kcal/mol
(6)  G-S(liq) free energy of system                     -349.949574069 a.u.
 SCF   energy in the final basis set =     -349.9469564996
 Total energy in the final basis set =     -349.9495740693
 
 --------------------------------------------------------------
 
                    Orbital Energies (a.u.)
 --------------------------------------------------------------
 
 Alpha MOs
 -- Occupied --
-19.2541 -19.1898 -19.1655 -10.4040 -10.2814 -10.2786  -2.1126  -1.2292
 -1.1123  -1.0918  -0.9026  -0.7077  -0.6522  -0.5939  -0.5779  -0.5737
 -0.5691  -0.5317  -0.4892  -0.4607  -0.4277  -0.4144  -0.3872  -0.3666
 -0.3568
 -- Virtual --
  0.0283   0.0464   0.0479   0.0552   0.0807   0.0893   0.1022   0.1059
  0.1170   0.1280   0.1297   0.1430   0.1451   0.1543   0.1582   0.1683
  0.1732   0.1747   0.1877   0.1908   0.1973   0.2113   0.2307   0.2368
  0.2464   0.2612   0.2660   0.2759   0.2838   0.2960   0.3049   0.3193
  0.3233   0.3360   0.3464   0.3524   0.3586   0.3744   0.3753   0.3794
  0.3875   0.3972   0.3996   0.4116   0.4172   0.4231   0.4304   0.4365
  0.4453   0.4498   0.4568   0.4663   0.4682   0.4815   0.4842   0.4850
  0.4981   0.5036   0.5129   0.5195   0.5238   0.5286   0.5373   0.5423
  0.5520   0.5718   0.5865   0.5935   0.6034   0.6114   0.6290   0.6352
  0.6569   0.6650   0.6799   0.6910   0.7017   0.7110   0.7277   0.7304
  0.7343   0.7496   0.7678   0.7764   0.7891   0.7919   0.8010   0.8105
  0.8137   0.8337   0.8382   0.8431   0.8492   0.8591   0.8983   0.9079
  0.9137   0.9310   0.9388   0.9617   0.9819   1.0074   1.0157   1.0462
  1.0476   1.0530   1.0839   1.1114   1.1319   1.1348   1.1943   1.2171
  1.2353   1.2536   1.2590   1.2650   1.2761   1.2815   1.2922   1.3011
  1.3186   1.3466   1.3613   1.3908   1.4200   1.4300   1.4642   1.5267
  1.5533   1.5627   1.5708   1.6109   1.6338   1.6455   1.7002   1.7056
  1.8311   1.8450   1.8623   1.8791   1.8971   1.9054   1.9150   1.9304
  1.9359   1.9661   1.9728   2.0100   2.0759   2.1023   2.1349   2.1669
  2.2035   2.2154   2.2303   2.2552   2.2737   2.3183   2.3311   2.3768
  2.4106   2.4351   2.5022   2.5322   2.6326   2.6751   2.7178   2.8457
  2.8754   2.8992   2.9188   2.9315   2.9666   2.9863   3.0104   3.0150
  3.0280   3.0690   3.0805   3.0950   3.1061   3.1586   3.1710   3.2251
  3.2292   3.2761   3.3005   3.3060   3.3375   3.3569   3.3828   3.3962
  3.4147   3.4376   3.4568   3.4873   3.5036   3.5057   3.5416   3.5521
  3.5840   3.6211   3.6328   3.6358   3.6464   3.6688   3.6869   3.7229
  3.7459   3.8133   3.8324   3.8518   3.8665   3.8818   3.9499   4.0672
  4.0981   4.1142   4.1557   4.1698   4.1971   4.2323   4.2380   4.3002
  4.3396   4.3974   4.4595   4.4756   4.5502   4.6675   4.6816   4.7564
  4.7662   4.7976   4.8107   4.8557   4.8565   5.0115   5.1283   5.1350
  5.2067   5.2327   5.2599   5.2685   5.2794   5.2879   5.3032   5.3102
  5.3276   5.3643   5.5011   5.5118   5.5411   5.5622   5.5862   5.6044
  5.6447   5.6796   5.6919   5.8123   5.9103   5.9935   6.0169   6.0412
  6.0709   6.2219   6.2531   6.3000   6.3345   6.3751   6.4686   6.5465
  6.5777   6.6381   6.6494   6.6841   6.6964   6.7209   6.7824   6.8620
  6.9009   6.9332   7.0387   7.2032   7.2826   7.3391   7.3451   7.4641
  7.6039  14.8517  23.3885  23.8388  23.8750  44.1391  44.2129  44.3417
 
 Beta MOs
 -- Occupied --
-19.2389 -19.1855 -19.1655 -10.4044 -10.2813 -10.2755  -2.1127  -1.2142
 -1.1040  -1.0628  -0.8941  -0.7028  -0.6342  -0.5900  -0.5683  -0.5648
 -0.5466  -0.5286  -0.4601  -0.4328  -0.4046  -0.3862  -0.3803  -0.3437
 -- Virtual --
 -0.0679   0.0287   0.0464   0.0481   0.0557   0.0893   0.0902   0.1047
  0.1068   0.1175   0.1281   0.1301   0.1436   0.1455   0.1554   0.1589
  0.1686   0.1741   0.1785   0.1885   0.1920   0.1975   0.2123   0.2310
  0.2374   0.2474   0.2627   0.2664   0.2772   0.2846   0.2984   0.3060
  0.3203   0.3241   0.3372   0.3470   0.3539   0.3596   0.3753   0.3764
  0.3800   0.3886   0.3987   0.4005   0.4124   0.4190   0.4241   0.4312
  0.4371   0.4462   0.4505   0.4581   0.4670   0.4687   0.4842   0.4855
  0.4899   0.4994   0.5060   0.5135   0.5206   0.5245   0.5294   0.5389
  0.5466   0.5528   0.5724   0.5872   0.5945   0.6039   0.6157   0.6336
  0.6375   0.6583   0.6658   0.6807   0.6920   0.7038   0.7120   0.7298
  0.7312   0.7353   0.7514   0.7716   0.7781   0.7906   0.7955   0.8028
  0.8112   0.8156   0.8353   0.8395   0.8449   0.8508   0.8608   0.8993
  0.9116   0.9155   0.9327   0.9407   0.9703   0.9832   1.0090   1.0194
  1.0489   1.0492   1.0558   1.0855   1.1138   1.1331   1.1364   1.1961
  1.2185   1.2364   1.2567   1.2613   1.2657   1.2778   1.2847   1.2938
  1.3038   1.3223   1.3498   1.3651   1.3925   1.4210   1.4322   1.4676
  1.5292   1.5564   1.5645   1.5736   1.6145   1.6367   1.6470   1.7018
  1.7066   1.8383   1.8490   1.8683   1.8818   1.9033   1.9146   1.9195
  1.9358   1.9413   1.9733   1.9805   2.0146   2.0870   2.1081   2.1370
  2.1736   2.2059   2.2198   2.2325   2.2592   2.2806   2.3264   2.3373
  2.3804   2.4145   2.4405   2.5075   2.5346   2.6361   2.6805   2.7305
  2.8494   2.8845   2.9012   2.9215   2.9365   2.9752   2.9929   3.0137
  3.0183   3.0312   3.0723   3.0828   3.0976   3.1105   3.1706   3.1839
  3.2314   3.2339   3.2786   3.3031   3.3074   3.3392   3.3663   3.3853
  3.3995   3.4209   3.4425   3.4610   3.4922   3.5082   3.5123   3.5498
  3.5637   3.5925   3.6233   3.6367   3.6406   3.6490   3.6715   3.6892
  3.7252   3.7591   3.8146   3.8345   3.8543   3.8684   3.8833   3.9534
  4.0711   4.1013   4.1160   4.1572   4.1718   4.1986   4.2343   4.2422
  4.3016   4.3404   4.3975   4.4609   4.4778   4.5558   4.6702   4.6849
  4.7613   4.7727   4.7993   4.8135   4.8578   4.8625   5.0154   5.1328
  5.1375   5.2079   5.2489   5.2653   5.2777   5.2890   5.3023   5.3135
  5.3283   5.3553   5.3658   5.5113   5.5261   5.5491   5.5733   5.5896
  5.6160   5.6482   5.6839   5.6955   5.8195   5.9212   5.9952   6.0251
  6.0505   6.0713   6.2233   6.2585   6.3071   6.3472   6.3802   6.4855
  6.5483   6.6053   6.6528   6.6647   6.7032   6.7088   6.7332   6.8031
  6.8954   6.9207   6.9522   7.0414   7.2101   7.2945   7.3635   7.3693
  7.4730   7.6118  14.8515  23.3906  23.8389  23.8764  44.1571  44.2166
 44.3436
 --------------------------------------------------------------
 
          Ground-State Mulliken Net Atomic Charges

     Atom                 Charge (a.u.)    Spin (a.u.)
  --------------------------------------------------------
      1 O                    -0.504088       0.621420
      2 C                     0.729660      -0.034447
      3 C                     0.027507      -0.009597
      4 O                    -0.751254       0.174639
      5 O                    -0.545863      -0.002285
      6 C                    -0.228218       0.244526
      7 H                     0.092998       0.001833
      8 H                     0.093915      -0.001043
      9 H                     0.119587       0.003341
     10 H                     0.095531      -0.000269
     11 Li                    0.870225       0.001882
  --------------------------------------------------------
  Sum of atomic charges =     0.000000
  Sum of spin   charges =     1.000000

  Building new vdw surfaces
         Merz-Kollman RESP Net Atomic Charges

     Atom                 Charge (a.u.)
  ----------------------------------------
      1 O                    -0.493798
      2 C                     0.855125
      3 C                    -0.296319
      4 O                    -0.761574
      5 O                    -0.644140
      6 C                    -0.359852
      7 H                     0.206303
      8 H                     0.206303
      9 H                     0.207578
     10 H                     0.207578
     11 Li                    0.872796
  ----------------------------------------
  Sum of atomic charges =     0.000000

  Related Dipole Moment =     9.3162 (X  6.8983 Y  0.5468 Z -6.2375)

 -----------------------------------------------------------------
                    Cartesian Multipole Moments
 -----------------------------------------------------------------
    Charge (ESU x 10^10)
                 0.0000
    Dipole Moment (Debye)
         X       6.9021      Y       0.5553      Z      -6.3524
       Tot       9.3968
    Quadrupole Moments (Debye-Ang)
        XX     -40.1872     XY       6.4053     YY     -34.8459
        XZ      -6.2744     YZ      -6.3924     ZZ     -19.4460
    Octopole Moments (Debye-Ang^2)
       XXX     -23.1182    XXY     -17.2691    XYY      -4.6114
       YYY     -40.5953    XXZ       1.7229    XYZ      -5.5857
       YYZ      -1.7638    XZZ       4.3373    YZZ       4.4085
       ZZZ     -58.6570
    Hexadecapole Moments (Debye-Ang^3)
      XXXX    -505.6528   XXXY      38.8958   XXYY    -105.4747
      XYYY      27.5960   YYYY    -139.8798   XXXZ    -120.3400
      XXYZ      13.2394   XYYZ     -37.7363   YYYZ      18.3848
      XXZZ    -158.8081   XYZZ      29.0974   YYZZ     -55.6791
      XZZZ    -153.2321   YZZZ     -33.3522   ZZZZ    -121.9993
 -----------------------------------------------------------------
 Calculating analytic gradient of the SCF energy
 Gradient of CDS energy
            1           2           3           4           5           6
    1   0.0006694  -0.0019932  -0.0000636   0.0007428   0.0008856   0.0007921
    2   0.0002532   0.0000158  -0.0014385   0.0000930  -0.0002133   0.0012690
    3  -0.0000747   0.0005162   0.0002175  -0.0009231   0.0007343   0.0000515
            7           8           9          10          11
    1  -0.0002549  -0.0001902  -0.0002394  -0.0002250  -0.0001236
    2   0.0001999   0.0003218  -0.0002393  -0.0000791  -0.0001824
    3  -0.0001039  -0.0002890  -0.0002083   0.0001348  -0.0000552
 Gradient of SCF Energy
            1           2           3           4           5           6
    1  -0.0056290   0.0028672  -0.0034444  -0.0035679  -0.0020576  -0.0060071
    2  -0.0005532   0.0028521   0.0027181  -0.0028879  -0.0005432  -0.0029636
    3   0.0039851   0.0003193   0.0026311   0.0083497  -0.0056359   0.0027050
            7           8           9          10          11
    1   0.0030403   0.0016529  -0.0001628   0.0066702   0.0066382
    2  -0.0036649  -0.0004348   0.0016989   0.0022842   0.0014942
    3  -0.0028321   0.0001816   0.0008708  -0.0038896  -0.0066849
 Max gradient component =       8.350E-03
 RMS gradient           =       3.745E-03
 Computing fast CPCM-SWIG gradient
 Updating gradient with PCM contributions...
 -- total gradient after adding PCM contribution --
---------------------------------------------------
  Atom         X              Y              Z     
---------------------------------------------------
   1      -0.000026       0.000038       0.000002
   2      -0.000065       0.000006       0.000006
   3      -0.000052      -0.000145      -0.000059
   4       0.000029      -0.000048       0.000065
   5       0.000033       0.000013      -0.000049
   6      -0.000024       0.000140       0.000002
   7       0.000003      -0.000008      -0.000004
   8       0.000044       0.000007       0.000060
   9       0.000021      -0.000016      -0.000004
  10       0.000017      -0.000019       0.000003
  11       0.000021       0.000032      -0.000022
---------------------------------------------------
 Number of fixed atoms: 0
 Gradient time:  CPU 286.10 s  wall 12.75 s
 ######################################################
 ######################################################
 # Starting finite difference calculation for IDERIV  #
 Finite diff step size:  1.88973e-03 a.u.
 ----------------------------------------------------------------
             Standard Nuclear Orientation (Angstroms)
    I     Atom           X                Y                Z
 ----------------------------------------------------------------
    1      O       0.5314065220    -0.0265723826    -0.8268946928
    2      C      -0.6669531272     0.5365184776    -0.4819080819
    3      C       1.8580043798    -0.5334526641     0.9728291698
    4      O      -1.2218927332     0.8706232989    -1.5889473251
    5      O      -1.0599597951     0.6475077541     0.6642512962
    6      C       2.2980685811     0.7337063757     1.0358122904
    7      H       2.4111853630    -1.2931688715     0.4304176551
    8      H       0.9918176028    -0.8563923599     1.5379169265
    9      H       1.7630701508     1.4883707494     1.6033166067
   10      H       3.1900372448     1.0474359352     0.5015115399
   11      Li      0.3465056450     0.8537004183    -2.5882851196
 ----------------------------------------------------------------
 Nuclear Repulsion Energy =         243.34345280 hartrees
 There are       25 alpha and       24 beta electrons
 Discretize the solute cavity surface with Lebedev spheres
	Using 110 Lebedev grid points for each H atom
	Using 194 Lebedev grid points for other atoms
	Atomic van der Waals radii will be scaled by 1.20
 Remove points where switching function is < 1.0e-08
 Keep 840 surface tesserae and discard 958 interior tesserae
 Molecular Surface Area = 163.721 Angst**2

                       Distance Matrix (Angstroms)
             O (  1)   C (  2)   C (  3)   O (  4)   O (  5)   C (  6)
   C (  2)  1.368266
   C (  3)  2.292552  3.104273
   O (  4)  2.111810  1.282622  4.244985
   O (  5)  2.282618  1.216739  3.162974  2.270002
   C (  6)  2.677461  3.336722  1.342876  4.392976  3.379622
   H (  7)  2.592040  3.695271  1.085075  4.686052  3.983686  2.118377
   H (  8)  2.548120  2.961657  1.083464  4.202425  2.689758  2.118210
   H (  9)  3.117367  3.340539  2.119976  4.413860  3.091665  1.085266
   H ( 10)  3.160138  4.013044  2.120297  4.885326  4.271873  1.086053
   Li( 11)  1.977768  2.358925  4.109788  1.859795  3.549599  4.117897
             H (  7)   H (  8)   H (  9)   H ( 10)
   H (  8)  1.852548
   H (  9)  3.087508  2.469215
   H ( 10)  2.467812  3.087210  1.855972
   Li( 11)  4.240816  4.512913  4.469786  4.203576
 
 Requested basis set is def2-TZVPPD
 There are 119 shells and 321 basis functions
 A cutoff of  1.0D-14 yielded   6771 shell pairs
 There are     49831 function pairs (     63376 Cartesian)
 Smallest overlap matrix eigenvalue = 7.19E-06
 Guess MOs from SCF MO coefficient file

 -----------------------------------------------------------------------
  General SCF calculation program by
  Eric Jon Sundstrom, Paul Horn, Yuezhi Mao, Dmitri Zuev, Alec White,
  David Stuck, Shaama M.S., Shane Yost, Joonho Lee, David Small,
  Daniel Levine, Susi Lehtola, Hugh Burton, Evgeny Epifanovsky,
  Bang C. Huynh
 -----------------------------------------------------------------------
 Exchange:     0.1670 Hartree-Fock + 1.0000 wB97X-V + LR-HF
 Correlation:  1.0000 wB97X-V
 Using SG-3 standard quadrature grid
 Nonlocal Correlation:  VV10 with C = 0.0100 and b = 6.00 and scale = 1.00000
 Grid used for NLC:  SG-1 standard quadrature
 
 Citation of the SMD model:
 Marenich, A.V.; Cramer, C.J.; Truhlar, D.G.
 J. Phys. Chem. B 2009, 113, 6378-6396.
 iSolventCode=           0
 Solvent: other                                                           
 
 vradii
            1           2           3           4           5           6
    1   2.2940000   1.8500000   1.8500000   2.2940000   2.2940000   1.8500000
            7           8           9          10          11
    1   1.2000000   1.2000000   1.2000000   1.2000000   2.1476001
 using 32 threads for integral computing
 -------------------------------------------------------
 OpenMP Integral computing Module                
 Release: version 1.0, May 2013, Q-Chem Inc. Pittsburgh 
 -------------------------------------------------------
 using 32 threads for integral computing
 -------------------------------------------------------
 OpenMP Integral computing Module                
 Release: version 1.0, May 2013, Q-Chem Inc. Pittsburgh 
 -------------------------------------------------------
 -------------------------------------------------------
 OpenMP BLAS3 based DFT computing Module                
 Release: version 1.0, May 2013, Q-Chem Inc. Pittsburgh 
 -------------------------------------------------------
 -------------------------------------------------------
 OpenMP BLAS3 based DFT computing Module                
 Release: version 1.0, May 2013, Q-Chem Inc. Pittsburgh 
 -------------------------------------------------------
 -------------------------------------------------------
 OpenMP BLAS3 based DFT computing Module                
 Release: version 1.0, May 2013, Q-Chem Inc. Pittsburgh 
 -------------------------------------------------------
 A unrestricted SCF calculation will be
 performed using Roothaan-Hall, DIIS
 SCF converges when DIIS error is below 1.0e-08
 ---------------------------------------
  Cycle       Energy         DIIS error
 ---------------------------------------
    1    -349.7472978723      1.56e-04  Roothaan Step
 ---------------------------------------
  Cycle       Energy         DIIS error
 ---------------------------------------
    1    -349.9441252307      1.88e-04  
    2    -349.9456384763      1.89e-04  
    3    -349.9468516961      4.07e-05  
    4    -349.9469350945      1.16e-05  
    5    -349.9469490534      6.69e-06  
    6    -349.9469529292      3.45e-06  
    7    -349.9469547619      1.65e-06  
    8    -349.9469559958      1.39e-06  
    9    -349.9469570485      6.82e-07  
   10    -349.9469573956      3.65e-07  
   11    -349.9469574549      1.68e-07  
   12    -349.9469574669      1.14e-07  
   13    -349.9469574738      5.66e-08  
   14    -349.9469574759      2.24e-08  
   15    -349.9469574762      9.59e-09  Convergence criterion met
 ---------------------------------------
 SCF time:   CPU 1630.11s  wall 60.00s 
<S^2> =          0.766281813
(3)  G-ENP(liq) elect-nuc-pol free energy of system     -349.946957476 a.u.
(4)  G-CDS(liq) cavity-dispersion-solvent structure 
     free energy                                               -1.6418 kcal/mol
(6)  G-S(liq) free energy of system                     -349.949573777 a.u.
 SCF   energy in the final basis set =     -349.9469574762
 Total energy in the final basis set =     -349.9495737772
 
 --------------------------------------------------------------
 
                    Orbital Energies (a.u.)
 --------------------------------------------------------------
 
 Alpha MOs
 -- Occupied --
-19.2540 -19.1897 -19.1655 -10.4040 -10.2814 -10.2787  -2.1125  -1.2289
 -1.1122  -1.0916  -0.9027  -0.7077  -0.6521  -0.5939  -0.5778  -0.5735
 -0.5689  -0.5318  -0.4892  -0.4607  -0.4277  -0.4143  -0.3872  -0.3665
 -0.3568
 -- Virtual --
  0.0284   0.0464   0.0479   0.0552   0.0807   0.0893   0.1022   0.1059
  0.1170   0.1281   0.1297   0.1430   0.1451   0.1543   0.1582   0.1683
  0.1732   0.1747   0.1877   0.1908   0.1973   0.2113   0.2307   0.2368
  0.2464   0.2612   0.2660   0.2759   0.2838   0.2960   0.3049   0.3193
  0.3233   0.3360   0.3464   0.3523   0.3586   0.3744   0.3753   0.3794
  0.3875   0.3971   0.3996   0.4115   0.4172   0.4231   0.4304   0.4365
  0.4453   0.4498   0.4568   0.4663   0.4681   0.4814   0.4842   0.4850
  0.4981   0.5036   0.5129   0.5195   0.5238   0.5286   0.5373   0.5423
  0.5520   0.5719   0.5865   0.5935   0.6034   0.6114   0.6289   0.6352
  0.6569   0.6650   0.6799   0.6910   0.7016   0.7110   0.7277   0.7304
  0.7344   0.7496   0.7678   0.7764   0.7891   0.7919   0.8009   0.8105
  0.8137   0.8337   0.8381   0.8430   0.8492   0.8590   0.8983   0.9079
  0.9137   0.9310   0.9388   0.9617   0.9819   1.0074   1.0157   1.0462
  1.0476   1.0530   1.0840   1.1114   1.1319   1.1348   1.1943   1.2171
  1.2353   1.2537   1.2590   1.2650   1.2762   1.2815   1.2922   1.3011
  1.3186   1.3465   1.3613   1.3908   1.4200   1.4299   1.4642   1.5267
  1.5532   1.5627   1.5707   1.6109   1.6338   1.6455   1.7002   1.7056
  1.8311   1.8450   1.8623   1.8790   1.8970   1.9054   1.9149   1.9303
  1.9359   1.9661   1.9728   2.0100   2.0758   2.1023   2.1348   2.1669
  2.2035   2.2154   2.2302   2.2551   2.2738   2.3178   2.3309   2.3766
  2.4107   2.4349   2.5025   2.5325   2.6326   2.6751   2.7177   2.8456
  2.8753   2.8992   2.9188   2.9314   2.9665   2.9862   3.0104   3.0150
  3.0279   3.0690   3.0804   3.0949   3.1060   3.1585   3.1708   3.2252
  3.2292   3.2762   3.3005   3.3060   3.3375   3.3569   3.3828   3.3962
  3.4145   3.4375   3.4565   3.4868   3.5033   3.5056   3.5415   3.5521
  3.5838   3.6211   3.6328   3.6358   3.6463   3.6687   3.6869   3.7230
  3.7460   3.8132   3.8324   3.8519   3.8665   3.8818   3.9500   4.0672
  4.0980   4.1142   4.1557   4.1698   4.1971   4.2323   4.2376   4.3001
  4.3395   4.3974   4.4595   4.4756   4.5502   4.6674   4.6814   4.7562
  4.7661   4.7976   4.8106   4.8558   4.8564   5.0114   5.1282   5.1350
  5.2066   5.2328   5.2599   5.2685   5.2795   5.2880   5.3033   5.3103
  5.3277   5.3643   5.5010   5.5116   5.5410   5.5620   5.5859   5.6040
  5.6447   5.6795   5.6915   5.8121   5.9096   5.9935   6.0166   6.0410
  6.0710   6.2220   6.2531   6.2996   6.3337   6.3748   6.4677   6.5464
  6.5778   6.6382   6.6493   6.6840   6.6964   6.7208   6.7825   6.8617
  6.9005   6.9330   7.0387   7.2032   7.2833   7.3386   7.3453   7.4639
  7.6030  14.8517  23.3884  23.8367  23.8746  44.1389  44.2129  44.3415
 
 Beta MOs
 -- Occupied --
-19.2388 -19.1854 -19.1656 -10.4044 -10.2814 -10.2756  -2.1126  -1.2139
 -1.1039  -1.0626  -0.8942  -0.7029  -0.6341  -0.5900  -0.5683  -0.5647
 -0.5465  -0.5287  -0.4602  -0.4327  -0.4045  -0.3861  -0.3803  -0.3438
 -- Virtual --
 -0.0678   0.0287   0.0464   0.0481   0.0557   0.0893   0.0903   0.1048
  0.1068   0.1175   0.1281   0.1301   0.1436   0.1455   0.1554   0.1589
  0.1686   0.1741   0.1784   0.1885   0.1920   0.1975   0.2123   0.2310
  0.2374   0.2474   0.2627   0.2663   0.2772   0.2846   0.2983   0.3060
  0.3203   0.3241   0.3372   0.3470   0.3539   0.3596   0.3753   0.3764
  0.3800   0.3886   0.3986   0.4005   0.4124   0.4189   0.4242   0.4312
  0.4371   0.4462   0.4505   0.4581   0.4670   0.4687   0.4841   0.4855
  0.4897   0.4994   0.5060   0.5135   0.5206   0.5245   0.5294   0.5389
  0.5466   0.5529   0.5724   0.5872   0.5945   0.6039   0.6157   0.6336
  0.6375   0.6583   0.6658   0.6807   0.6920   0.7038   0.7120   0.7298
  0.7312   0.7353   0.7514   0.7716   0.7781   0.7906   0.7955   0.8028
  0.8112   0.8156   0.8352   0.8395   0.8449   0.8508   0.8608   0.8992
  0.9116   0.9155   0.9327   0.9407   0.9703   0.9832   1.0091   1.0194
  1.0489   1.0492   1.0559   1.0856   1.1138   1.1331   1.1365   1.1961
  1.2185   1.2364   1.2568   1.2613   1.2657   1.2779   1.2847   1.2937
  1.3039   1.3223   1.3498   1.3651   1.3925   1.4210   1.4321   1.4676
  1.5292   1.5563   1.5645   1.5735   1.6144   1.6366   1.6470   1.7018
  1.7066   1.8382   1.8490   1.8683   1.8817   1.9032   1.9146   1.9194
  1.9357   1.9413   1.9733   1.9805   2.0146   2.0870   2.1081   2.1369
  2.1735   2.2059   2.2198   2.2325   2.2591   2.2806   2.3260   2.3372
  2.3803   2.4146   2.4402   2.5078   2.5350   2.6360   2.6805   2.7304
  2.8493   2.8844   2.9011   2.9215   2.9364   2.9752   2.9928   3.0136
  3.0184   3.0312   3.0723   3.0827   3.0975   3.1104   3.1704   3.1839
  3.2314   3.2340   3.2787   3.3031   3.3075   3.3392   3.3663   3.3853
  3.3995   3.4207   3.4424   3.4608   3.4917   3.5080   3.5122   3.5497
  3.5636   3.5922   3.6233   3.6367   3.6405   3.6489   3.6715   3.6891
  3.7252   3.7592   3.8146   3.8345   3.8543   3.8684   3.8833   3.9534
  4.0710   4.1013   4.1160   4.1572   4.1718   4.1985   4.2343   4.2418
  4.3015   4.3403   4.3975   4.4609   4.4778   4.5558   4.6702   4.6847
  4.7612   4.7725   4.7992   4.8135   4.8577   4.8625   5.0153   5.1327
  5.1375   5.2079   5.2490   5.2653   5.2777   5.2891   5.3023   5.3136
  5.3284   5.3555   5.3658   5.5111   5.5260   5.5491   5.5730   5.5893
  5.6157   5.6482   5.6838   5.6952   5.8193   5.9204   5.9952   6.0249
  6.0503   6.0713   6.2234   6.2586   6.3066   6.3463   6.3800   6.4845
  6.5482   6.6053   6.6529   6.6647   6.7031   6.7087   6.7331   6.8030
  6.8951   6.9205   6.9518   7.0413   7.2100   7.2950   7.3639   7.3688
  7.4727   7.6109  14.8516  23.3906  23.8368  23.8761  44.1569  44.2166
 44.3434
 --------------------------------------------------------------
 
          Ground-State Mulliken Net Atomic Charges

     Atom                 Charge (a.u.)    Spin (a.u.)
  --------------------------------------------------------
      1 O                    -0.504188       0.621524
      2 C                     0.729213      -0.034373
      3 C                     0.028047      -0.009373
      4 O                    -0.751588       0.173647
      5 O                    -0.545743      -0.002370
      6 C                    -0.227931       0.245158
      7 H                     0.092951       0.001841
      8 H                     0.093908      -0.001051
      9 H                     0.119597       0.003356
     10 H                     0.095494      -0.000265
     11 Li                    0.870240       0.001906
  --------------------------------------------------------
  Sum of atomic charges =     0.000000
  Sum of spin   charges =     1.000000

  Building new vdw surfaces
         Merz-Kollman RESP Net Atomic Charges

     Atom                 Charge (a.u.)
  ----------------------------------------
      1 O                    -0.494173
      2 C                     0.854897
      3 C                    -0.295739
      4 O                    -0.761856
      5 O                    -0.644002
      6 C                    -0.359395
      7 H                     0.206226
      8 H                     0.206226
      9 H                     0.207527
     10 H                     0.207527
     11 Li                    0.872764
  ----------------------------------------
  Sum of atomic charges =     0.000000

  Related Dipole Moment =     9.3148 (X  6.9044 Y  0.5457 Z -6.2287)

 -----------------------------------------------------------------
                    Cartesian Multipole Moments
 -----------------------------------------------------------------
    Charge (ESU x 10^10)
                 0.0000
    Dipole Moment (Debye)
         X       6.9082      Y       0.5541      Z      -6.3436
       Tot       9.3953
    Quadrupole Moments (Debye-Ang)
        XX     -40.1756     XY       6.4075     YY     -34.8462
        XZ      -6.2666     YZ      -6.3890     ZZ     -19.4477
    Octopole Moments (Debye-Ang^2)
       XXX     -23.0788    XXY     -17.2702    XYY      -4.6075
       YYY     -40.5975    XXZ       1.7571    XYZ      -5.5884
       YYZ      -1.7531    XZZ       4.3490    YZZ       4.4042
       ZZZ     -58.6240
    Hexadecapole Moments (Debye-Ang^3)
      XXXX    -505.5424   XXXY      38.9120   XXYY    -105.4664
      XYYY      27.6023   YYYY    -139.8768   XXXZ    -120.2696
      XXYZ      13.2499   XYYZ     -37.7272   YYYZ      18.3941
      XXZZ    -158.7877   XYZZ      29.1030   YYZZ     -55.6804
      XZZZ    -153.1890   YZZZ     -33.3416   ZZZZ    -122.0051
 -----------------------------------------------------------------
 Calculating analytic gradient of the SCF energy
 Gradient of CDS energy
            1           2           3           4           5           6
    1   0.0006733  -0.0019970  -0.0000636   0.0007428   0.0008856   0.0007921
    2   0.0002502   0.0000181  -0.0014383   0.0000930  -0.0002133   0.0012689
    3  -0.0000759   0.0005172   0.0002180  -0.0009231   0.0007343   0.0000516
            7           8           9          10          11
    1  -0.0002549  -0.0001901  -0.0002394  -0.0002250  -0.0001237
    2   0.0001999   0.0003219  -0.0002393  -0.0000791  -0.0001820
    3  -0.0001041  -0.0002889  -0.0002083   0.0001348  -0.0000555
 Gradient of SCF Energy
            1           2           3           4           5           6
    1  -0.0052712   0.0026136  -0.0033675  -0.0036712  -0.0021206  -0.0060275
    2  -0.0007223   0.0029095   0.0027869  -0.0028247  -0.0004935  -0.0030471
    3   0.0038267   0.0005021   0.0026997   0.0082510  -0.0055932   0.0027051
            7           8           9          10          11
    1   0.0030425   0.0016397  -0.0001694   0.0066834   0.0066481
    2  -0.0036735  -0.0004387   0.0017102   0.0022897   0.0015034
    3  -0.0028483   0.0001834   0.0008783  -0.0038968  -0.0067081
 Max gradient component =       8.251E-03
 RMS gradient           =       3.723E-03
 Computing fast CPCM-SWIG gradient
 Updating gradient with PCM contributions...
 -- total gradient after adding PCM contribution --
---------------------------------------------------
  Atom         X              Y              Z     
---------------------------------------------------
   1       0.000335      -0.000129      -0.000153
   2      -0.000312       0.000057       0.000178
   3       0.000022      -0.000078       0.000010
   4      -0.000073       0.000017      -0.000033
   5      -0.000034       0.000067       0.000003
   6      -0.000043       0.000059       0.000007
   7      -0.000001      -0.000009      -0.000015
   8       0.000039       0.000007       0.000054
   9       0.000021      -0.000014      -0.000004
  10       0.000018      -0.000017       0.000002
  11       0.000028       0.000041      -0.000047
---------------------------------------------------
 Number of fixed atoms: 0
 Gradient time:  CPU 284.52 s  wall 12.67 s
 ----------------------------------------------------------------
             Standard Nuclear Orientation (Angstroms)
    I     Atom           X                Y                Z
 ----------------------------------------------------------------
    1      O       0.5294065220    -0.0265723826    -0.8268946928
    2      C      -0.6669531272     0.5365184776    -0.4819080819
    3      C       1.8580043798    -0.5334526641     0.9728291698
    4      O      -1.2218927332     0.8706232989    -1.5889473251
    5      O      -1.0599597951     0.6475077541     0.6642512962
    6      C       2.2980685811     0.7337063757     1.0358122904
    7      H       2.4111853630    -1.2931688715     0.4304176551
    8      H       0.9918176028    -0.8563923599     1.5379169265
    9      H       1.7630701508     1.4883707494     1.6033166067
   10      H       3.1900372448     1.0474359352     0.5015115399
   11      Li      0.3465056450     0.8537004183    -2.5882851196
 ----------------------------------------------------------------
 Nuclear Repulsion Energy =         243.37705601 hartrees
 There are       25 alpha and       24 beta electrons
 Discretize the solute cavity surface with Lebedev spheres
	Using 110 Lebedev grid points for each H atom
	Using 194 Lebedev grid points for other atoms
	Atomic van der Waals radii will be scaled by 1.20
 Remove points where switching function is < 1.0e-08
 Keep 840 surface tesserae and discard 958 interior tesserae
 Molecular Surface Area = 163.718 Angst**2

                       Distance Matrix (Angstroms)
             O (  1)   C (  2)   C (  3)   O (  4)   O (  5)   C (  6)
   C (  2)  1.366515
   C (  3)  2.293710  3.104273
   O (  4)  2.110150  1.282622  4.244985
   O (  5)  2.281225  1.216739  3.162974  2.270002
   C (  6)  2.678781  3.336722  1.342876  4.392976  3.379622
   H (  7)  2.593490  3.695271  1.085075  4.686052  3.983686  2.118377
   H (  8)  2.548482  2.961657  1.083464  4.202425  2.689758  2.118210
   H (  9)  3.118157  3.340539  2.119976  4.413860  3.091665  1.085266
   H ( 10)  3.161821  4.013044  2.120297  4.885326  4.271873  1.086053
   Li( 11)  1.977582  2.358925  4.109788  1.859795  3.549599  4.117897
             H (  7)   H (  8)   H (  9)   H ( 10)
   H (  8)  1.852548
   H (  9)  3.087508  2.469215
   H ( 10)  2.467812  3.087210  1.855972
   Li( 11)  4.240816  4.512913  4.469786  4.203576
 
 Requested basis set is def2-TZVPPD
 There are 119 shells and 321 basis functions
 A cutoff of  1.0D-14 yielded   6771 shell pairs
 There are     49831 function pairs (     63376 Cartesian)
 Smallest overlap matrix eigenvalue = 7.20E-06
 Guess MOs from SCF MO coefficient file

 -----------------------------------------------------------------------
  General SCF calculation program by
  Eric Jon Sundstrom, Paul Horn, Yuezhi Mao, Dmitri Zuev, Alec White,
  David Stuck, Shaama M.S., Shane Yost, Joonho Lee, David Small,
  Daniel Levine, Susi Lehtola, Hugh Burton, Evgeny Epifanovsky,
  Bang C. Huynh
 -----------------------------------------------------------------------
 Exchange:     0.1670 Hartree-Fock + 1.0000 wB97X-V + LR-HF
 Correlation:  1.0000 wB97X-V
 Using SG-3 standard quadrature grid
 Nonlocal Correlation:  VV10 with C = 0.0100 and b = 6.00 and scale = 1.00000
 Grid used for NLC:  SG-1 standard quadrature
 
 Citation of the SMD model:
 Marenich, A.V.; Cramer, C.J.; Truhlar, D.G.
 J. Phys. Chem. B 2009, 113, 6378-6396.
 iSolventCode=           0
 Solvent: other                                                           
 
 vradii
            1           2           3           4           5           6
    1   2.2940000   1.8500000   1.8500000   2.2940000   2.2940000   1.8500000
            7           8           9          10          11
    1   1.2000000   1.2000000   1.2000000   1.2000000   2.1476001
 using 32 threads for integral computing
 -------------------------------------------------------
 OpenMP Integral computing Module                
 Release: version 1.0, May 2013, Q-Chem Inc. Pittsburgh 
 -------------------------------------------------------
 using 32 threads for integral computing
 -------------------------------------------------------
 OpenMP Integral computing Module                
 Release: version 1.0, May 2013, Q-Chem Inc. Pittsburgh 
 -------------------------------------------------------
 -------------------------------------------------------
 OpenMP BLAS3 based DFT computing Module                
 Release: version 1.0, May 2013, Q-Chem Inc. Pittsburgh 
 -------------------------------------------------------
 -------------------------------------------------------
 OpenMP BLAS3 based DFT computing Module                
 Release: version 1.0, May 2013, Q-Chem Inc. Pittsburgh 
 -------------------------------------------------------
 -------------------------------------------------------
 OpenMP BLAS3 based DFT computing Module                
 Release: version 1.0, May 2013, Q-Chem Inc. Pittsburgh 
 -------------------------------------------------------
 A unrestricted SCF calculation will be
 performed using Roothaan-Hall, DIIS
 SCF converges when DIIS error is below 1.0e-08
 ---------------------------------------
  Cycle       Energy         DIIS error
 ---------------------------------------
    1    -349.7474111407      1.56e-04  Roothaan Step
 ---------------------------------------
  Cycle       Energy         DIIS error
 ---------------------------------------
    1    -349.9441104269      1.89e-04  
    2    -349.9456131020      1.91e-04  
    3    -349.9468530249      4.05e-05  
    4    -349.9469351022      1.15e-05  
    5    -349.9469480749      6.70e-06  
    6    -349.9469514767      3.26e-06  
    7    -349.9469528964      1.47e-06  
    8    -349.9469537560      1.21e-06  
    9    -349.9469544748      6.29e-07  
   10    -349.9469547736      3.46e-07  
   11    -349.9469548302      1.54e-07  
   12    -349.9469548405      1.03e-07  
   13    -349.9469548462      5.36e-08  
   14    -349.9469548482      2.23e-08  
   15    -349.9469548485      9.59e-09  Convergence criterion met
 ---------------------------------------
 SCF time:   CPU 1624.94s  wall 60.00s 
<S^2> =          0.766236797
(3)  G-ENP(liq) elect-nuc-pol free energy of system     -349.946954849 a.u.
(4)  G-CDS(liq) cavity-dispersion-solvent structure 
     free energy                                               -1.6433 kcal/mol
(6)  G-S(liq) free energy of system                     -349.949573680 a.u.
 SCF   energy in the final basis set =     -349.9469548485
 Total energy in the final basis set =     -349.9495736795
 
 --------------------------------------------------------------
 
                    Orbital Energies (a.u.)
 --------------------------------------------------------------
 
 Alpha MOs
 -- Occupied --
-19.2541 -19.1900 -19.1655 -10.4040 -10.2813 -10.2786  -2.1126  -1.2295
 -1.1123  -1.0919  -0.9025  -0.7076  -0.6523  -0.5939  -0.5780  -0.5738
 -0.5692  -0.5316  -0.4893  -0.4606  -0.4278  -0.4145  -0.3873  -0.3666
 -0.3568
 -- Virtual --
  0.0283   0.0464   0.0479   0.0552   0.0808   0.0893   0.1022   0.1059
  0.1170   0.1280   0.1297   0.1430   0.1451   0.1543   0.1582   0.1683
  0.1732   0.1748   0.1877   0.1908   0.1973   0.2113   0.2307   0.2367
  0.2464   0.2612   0.2660   0.2760   0.2838   0.2960   0.3050   0.3193
  0.3233   0.3361   0.3464   0.3524   0.3586   0.3744   0.3753   0.3794
  0.3875   0.3972   0.3996   0.4117   0.4173   0.4231   0.4304   0.4365
  0.4453   0.4498   0.4567   0.4663   0.4682   0.4817   0.4842   0.4851
  0.4981   0.5036   0.5129   0.5195   0.5238   0.5286   0.5373   0.5423
  0.5520   0.5718   0.5865   0.5935   0.6034   0.6114   0.6290   0.6353
  0.6568   0.6650   0.6799   0.6909   0.7017   0.7110   0.7277   0.7304
  0.7343   0.7496   0.7678   0.7765   0.7891   0.7920   0.8010   0.8105
  0.8138   0.8338   0.8382   0.8431   0.8492   0.8591   0.8983   0.9079
  0.9136   0.9310   0.9388   0.9617   0.9819   1.0074   1.0156   1.0463
  1.0476   1.0529   1.0839   1.1114   1.1319   1.1348   1.1943   1.2171
  1.2353   1.2535   1.2590   1.2650   1.2761   1.2814   1.2922   1.3010
  1.3186   1.3466   1.3613   1.3909   1.4201   1.4300   1.4643   1.5268
  1.5534   1.5627   1.5708   1.6109   1.6339   1.6455   1.7002   1.7056
  1.8311   1.8451   1.8623   1.8792   1.8971   1.9054   1.9151   1.9306
  1.9360   1.9661   1.9728   2.0100   2.0760   2.1023   2.1350   2.1669
  2.2036   2.2155   2.2303   2.2553   2.2737   2.3187   2.3312   2.3769
  2.4106   2.4353   2.5018   2.5318   2.6327   2.6752   2.7180   2.8457
  2.8755   2.8992   2.9189   2.9316   2.9666   2.9864   3.0105   3.0150
  3.0280   3.0690   3.0806   3.0951   3.1062   3.1587   3.1712   3.2250
  3.2292   3.2761   3.3005   3.3060   3.3374   3.3570   3.3828   3.3962
  3.4149   3.4376   3.4570   3.4878   3.5038   3.5058   3.5417   3.5521
  3.5842   3.6211   3.6329   3.6359   3.6465   3.6688   3.6869   3.7229
  3.7459   3.8133   3.8325   3.8518   3.8665   3.8819   3.9499   4.0673
  4.0981   4.1142   4.1557   4.1698   4.1972   4.2323   4.2384   4.3003
  4.3396   4.3974   4.4595   4.4756   4.5502   4.6676   4.6817   4.7566
  4.7664   4.7977   4.8107   4.8557   4.8565   5.0115   5.1284   5.1350
  5.2067   5.2325   5.2599   5.2684   5.2793   5.2879   5.3031   5.3101
  5.3274   5.3643   5.5012   5.5120   5.5412   5.5624   5.5864   5.6048
  5.6448   5.6796   5.6923   5.8124   5.9111   5.9936   6.0172   6.0413
  6.0709   6.2218   6.2530   6.3004   6.3354   6.3754   6.4696   6.5465
  6.5777   6.6380   6.6495   6.6842   6.6965   6.7209   6.7824   6.8624
  6.9013   6.9333   7.0388   7.2033   7.2819   7.3396   7.3449   7.4644
  7.6048  14.8517  23.3885  23.8408  23.8754  44.1393  44.2128  44.3419
 
 Beta MOs
 -- Occupied --
-19.2390 -19.1856 -19.1655 -10.4044 -10.2812 -10.2754  -2.1128  -1.2144
 -1.1041  -1.0630  -0.8941  -0.7028  -0.6342  -0.5900  -0.5684  -0.5650
 -0.5466  -0.5286  -0.4601  -0.4328  -0.4047  -0.3862  -0.3803  -0.3437
 -- Virtual --
 -0.0679   0.0287   0.0464   0.0481   0.0557   0.0893   0.0902   0.1047
  0.1068   0.1175   0.1281   0.1301   0.1435   0.1455   0.1554   0.1589
  0.1686   0.1741   0.1785   0.1885   0.1920   0.1975   0.2123   0.2310
  0.2374   0.2474   0.2627   0.2664   0.2771   0.2846   0.2984   0.3061
  0.3203   0.3241   0.3372   0.3470   0.3540   0.3596   0.3753   0.3764
  0.3800   0.3886   0.3987   0.4005   0.4125   0.4191   0.4241   0.4313
  0.4371   0.4462   0.4505   0.4581   0.4670   0.4687   0.4843   0.4855
  0.4900   0.4994   0.5060   0.5135   0.5206   0.5245   0.5294   0.5389
  0.5466   0.5528   0.5724   0.5872   0.5945   0.6038   0.6156   0.6336
  0.6375   0.6583   0.6658   0.6807   0.6920   0.7038   0.7120   0.7298
  0.7312   0.7353   0.7514   0.7715   0.7781   0.7906   0.7956   0.8028
  0.8112   0.8157   0.8353   0.8395   0.8450   0.8508   0.8609   0.8993
  0.9116   0.9155   0.9327   0.9407   0.9704   0.9832   1.0090   1.0194
  1.0488   1.0492   1.0558   1.0854   1.1138   1.1331   1.1364   1.1961
  1.2185   1.2364   1.2567   1.2613   1.2656   1.2778   1.2846   1.2938
  1.3038   1.3223   1.3498   1.3651   1.3926   1.4210   1.4322   1.4676
  1.5293   1.5564   1.5645   1.5736   1.6145   1.6367   1.6470   1.7018
  1.7067   1.8383   1.8490   1.8682   1.8819   1.9033   1.9145   1.9196
  1.9359   1.9413   1.9733   1.9805   2.0146   2.0871   2.1080   2.1370
  2.1736   2.2060   2.2199   2.2326   2.2593   2.2805   2.3267   2.3374
  2.3806   2.4145   2.4407   2.5072   2.5342   2.6361   2.6806   2.7307
  2.8494   2.8846   2.9012   2.9216   2.9365   2.9753   2.9931   3.0137
  3.0183   3.0313   3.0723   3.0829   3.0978   3.1106   3.1709   3.1840
  3.2314   3.2338   3.2786   3.3031   3.3074   3.3391   3.3664   3.3852
  3.3995   3.4211   3.4425   3.4613   3.4926   3.5084   3.5124   3.5498
  3.5639   3.5927   3.6233   3.6368   3.6407   3.6491   3.6715   3.6892
  3.7252   3.7590   3.8147   3.8345   3.8543   3.8685   3.8833   3.9534
  4.0711   4.1013   4.1161   4.1572   4.1719   4.1986   4.2343   4.2426
  4.3016   4.3404   4.3975   4.4609   4.4778   4.5558   4.6703   4.6850
  4.7614   4.7728   4.7993   4.8136   4.8578   4.8624   5.0154   5.1328
  5.1376   5.2079   5.2487   5.2653   5.2777   5.2890   5.3023   5.3134
  5.3282   5.3551   5.3659   5.5114   5.5262   5.5492   5.5735   5.5898
  5.6164   5.6482   5.6839   5.6959   5.8197   5.9220   5.9953   6.0253
  6.0507   6.0712   6.2232   6.2585   6.3075   6.3482   6.3805   6.4864
  6.5483   6.6053   6.6528   6.6648   6.7032   6.7089   6.7333   6.8031
  6.8957   6.9209   6.9526   7.0414   7.2102   7.2940   7.3631   7.3698
  7.4733   7.6127  14.8515  23.3907  23.8410  23.8768  44.1573  44.2167
 44.3439
 --------------------------------------------------------------
 
          Ground-State Mulliken Net Atomic Charges

     Atom                 Charge (a.u.)    Spin (a.u.)
  --------------------------------------------------------
      1 O                    -0.503990       0.621309
      2 C                     0.730110      -0.034522
      3 C                     0.026961      -0.009825
      4 O                    -0.750917       0.175632
      5 O                    -0.545983      -0.002189
      6 C                    -0.228501       0.243896
      7 H                     0.093045       0.001824
      8 H                     0.093923      -0.001036
      9 H                     0.119576       0.003326
     10 H                     0.095567      -0.000274
     11 Li                    0.870210       0.001859
  --------------------------------------------------------
  Sum of atomic charges =     0.000000
  Sum of spin   charges =     1.000000

  Building new vdw surfaces
         Merz-Kollman RESP Net Atomic Charges

     Atom                 Charge (a.u.)
  ----------------------------------------
      1 O                    -0.493868
      2 C                     0.855938
      3 C                    -0.297031
      4 O                    -0.761448
      5 O                    -0.644457
      6 C                    -0.360553
      7 H                     0.206504
      8 H                     0.206504
      9 H                     0.207734
     10 H                     0.207734
     11 Li                    0.872942
  ----------------------------------------
  Sum of atomic charges =     0.000000

  Related Dipole Moment =     9.3174 (X  6.8919 Y  0.5483 Z -6.2462)

 -----------------------------------------------------------------
                    Cartesian Multipole Moments
 -----------------------------------------------------------------
    Charge (ESU x 10^10)
                 0.0000
    Dipole Moment (Debye)
         X       6.8959      Y       0.5564      Z      -6.3612
       Tot       9.3983
    Quadrupole Moments (Debye-Ang)
        XX     -40.1989     XY       6.4031     YY     -34.8456
        XZ      -6.2824     YZ      -6.3958     ZZ     -19.4444
    Octopole Moments (Debye-Ang^2)
       XXX     -23.1582    XXY     -17.2680    XYY      -4.6153
       YYY     -40.5932    XXZ       1.6885    XYZ      -5.5831
       YYZ      -1.7746    XZZ       4.3253    YZZ       4.4129
       ZZZ     -58.6904
    Hexadecapole Moments (Debye-Ang^3)
      XXXX    -505.7641   XXXY      38.8795   XXYY    -105.4831
      XYYY      27.5896   YYYY    -139.8829   XXXZ    -120.4107
      XXYZ      13.2289   XYYZ     -37.7454   YYYZ      18.3756
      XXZZ    -158.8288   XYZZ      29.0916   YYZZ     -55.6778
      XZZZ    -153.2754   YZZZ     -33.3630   ZZZZ    -121.9933
 -----------------------------------------------------------------
 Calculating analytic gradient of the SCF energy
 Gradient of CDS energy
            1           2           3           4           5           6
    1   0.0006654  -0.0019892  -0.0000636   0.0007428   0.0008856   0.0007921
    2   0.0002563   0.0000135  -0.0014387   0.0000930  -0.0002133   0.0012690
    3  -0.0000734   0.0005151   0.0002170  -0.0009231   0.0007343   0.0000514
            7           8           9          10          11
    1  -0.0002548  -0.0001904  -0.0002394  -0.0002250  -0.0001235
    2   0.0001998   0.0003218  -0.0002393  -0.0000791  -0.0001829
    3  -0.0001036  -0.0002891  -0.0002083   0.0001348  -0.0000549
 Gradient of SCF Energy
            1           2           3           4           5           6
    1  -0.0059869   0.0031216  -0.0035217  -0.0034648  -0.0019942  -0.0059869
    2  -0.0003846   0.0027954   0.0026490  -0.0029515  -0.0005930  -0.0028795
    3   0.0041445   0.0001357   0.0025624   0.0084481  -0.0056786   0.0027044
            7           8           9          10          11
    1   0.0030380   0.0016662  -0.0001562   0.0066570   0.0066279
    2  -0.0036563  -0.0004309   0.0016875   0.0022787   0.0014850
    3  -0.0028159   0.0001797   0.0008633  -0.0038823  -0.0066613
 Max gradient component =       8.448E-03
 RMS gradient           =       3.770E-03
 Computing fast CPCM-SWIG gradient
 Updating gradient with PCM contributions...
 -- total gradient after adding PCM contribution --
---------------------------------------------------
  Atom         X              Y              Z     
---------------------------------------------------
   1      -0.000387       0.000206       0.000159
   2       0.000182      -0.000045      -0.000167
   3      -0.000127      -0.000213      -0.000128
   4       0.000132      -0.000114       0.000163
   5       0.000100      -0.000041      -0.000100
   6      -0.000006       0.000221      -0.000004
   7       0.000008      -0.000007       0.000007
   8       0.000049       0.000006       0.000067
   9       0.000022      -0.000017      -0.000004
  10       0.000015      -0.000021       0.000004
  11       0.000013       0.000024       0.000003
---------------------------------------------------
 Number of fixed atoms: 0
 Gradient time:  CPU 285.46 s  wall 12.76 s
 ----------------------------------------------------------------
             Standard Nuclear Orientation (Angstroms)
    I     Atom           X                Y                Z
 ----------------------------------------------------------------
    1      O       0.5304065220    -0.0255723826    -0.8268946928
    2      C      -0.6669531272     0.5365184776    -0.4819080819
    3      C       1.8580043798    -0.5334526641     0.9728291698
    4      O      -1.2218927332     0.8706232989    -1.5889473251
    5      O      -1.0599597951     0.6475077541     0.6642512962
    6      C       2.2980685811     0.7337063757     1.0358122904
    7      H       2.4111853630    -1.2931688715     0.4304176551
    8      H       0.9918176028    -0.8563923599     1.5379169265
    9      H       1.7630701508     1.4883707494     1.6033166067
   10      H       3.1900372448     1.0474359352     0.5015115399
   11      Li      0.3465056450     0.8537004183    -2.5882851196
 ----------------------------------------------------------------
 Nuclear Repulsion Energy =         243.37220399 hartrees
 There are       25 alpha and       24 beta electrons
 Discretize the solute cavity surface with Lebedev spheres
	Using 110 Lebedev grid points for each H atom
	Using 194 Lebedev grid points for other atoms
	Atomic van der Waals radii will be scaled by 1.20
 Remove points where switching function is < 1.0e-08
 Keep 840 surface tesserae and discard 958 interior tesserae
 Molecular Surface Area = 163.713 Angst**2

                       Distance Matrix (Angstroms)
             O (  1)   C (  2)   C (  3)   O (  4)   O (  5)   C (  6)
   C (  2)  1.366979
   C (  3)  2.293352  3.104273
   O (  4)  2.110555  1.282622  4.244985
   O (  5)  2.281626  1.216739  3.162974  2.270002
   C (  6)  2.677837  3.336722  1.342876  4.392976  3.379622
   H (  7)  2.593254  3.695271  1.085075  4.686052  3.983686  2.118377
   H (  8)  2.548626  2.961657  1.083464  4.202425  2.689758  2.118210
   H (  9)  3.117276  3.340539  2.119976  4.413860  3.091665  1.085266
   H ( 10)  3.160640  4.013044  2.120297  4.885326  4.271873  1.086053
   Li( 11)  1.977229  2.358925  4.109788  1.859795  3.549599  4.117897
             H (  7)   H (  8)   H (  9)   H ( 10)
   H (  8)  1.852548
   H (  9)  3.087508  2.469215
   H ( 10)  2.467812  3.087210  1.855972
   Li( 11)  4.240816  4.512913  4.469786  4.203576
 
 Requested basis set is def2-TZVPPD
 There are 119 shells and 321 basis functions
 A cutoff of  1.0D-14 yielded   6771 shell pairs
 There are     49831 function pairs (     63376 Cartesian)
 Smallest overlap matrix eigenvalue = 7.19E-06
 Guess MOs from SCF MO coefficient file

 -----------------------------------------------------------------------
  General SCF calculation program by
  Eric Jon Sundstrom, Paul Horn, Yuezhi Mao, Dmitri Zuev, Alec White,
  David Stuck, Shaama M.S., Shane Yost, Joonho Lee, David Small,
  Daniel Levine, Susi Lehtola, Hugh Burton, Evgeny Epifanovsky,
  Bang C. Huynh
 -----------------------------------------------------------------------
 Exchange:     0.1670 Hartree-Fock + 1.0000 wB97X-V + LR-HF
 Correlation:  1.0000 wB97X-V
 Using SG-3 standard quadrature grid
 Nonlocal Correlation:  VV10 with C = 0.0100 and b = 6.00 and scale = 1.00000
 Grid used for NLC:  SG-1 standard quadrature
 
 Citation of the SMD model:
 Marenich, A.V.; Cramer, C.J.; Truhlar, D.G.
 J. Phys. Chem. B 2009, 113, 6378-6396.
 iSolventCode=           0
 Solvent: other                                                           
 
 vradii
            1           2           3           4           5           6
    1   2.2940000   1.8500000   1.8500000   2.2940000   2.2940000   1.8500000
            7           8           9          10          11
    1   1.2000000   1.2000000   1.2000000   1.2000000   2.1476001
 using 32 threads for integral computing
 -------------------------------------------------------
 OpenMP Integral computing Module                
 Release: version 1.0, May 2013, Q-Chem Inc. Pittsburgh 
 -------------------------------------------------------
 using 32 threads for integral computing
 -------------------------------------------------------
 OpenMP Integral computing Module                
 Release: version 1.0, May 2013, Q-Chem Inc. Pittsburgh 
 -------------------------------------------------------
 -------------------------------------------------------
 OpenMP BLAS3 based DFT computing Module                
 Release: version 1.0, May 2013, Q-Chem Inc. Pittsburgh 
 -------------------------------------------------------
 -------------------------------------------------------
 OpenMP BLAS3 based DFT computing Module                
 Release: version 1.0, May 2013, Q-Chem Inc. Pittsburgh 
 -------------------------------------------------------
 -------------------------------------------------------
 OpenMP BLAS3 based DFT computing Module                
 Release: version 1.0, May 2013, Q-Chem Inc. Pittsburgh 
 -------------------------------------------------------
 A unrestricted SCF calculation will be
 performed using Roothaan-Hall, DIIS
 SCF converges when DIIS error is below 1.0e-08
 ---------------------------------------
  Cycle       Energy         DIIS error
 ---------------------------------------
    1    -349.7471370353      1.56e-04  Roothaan Step
 ---------------------------------------
  Cycle       Energy         DIIS error
 ---------------------------------------
    1    -349.9441190127      1.88e-04  
    2    -349.9456284091      1.89e-04  
    3    -349.9468515596      4.06e-05  
    4    -349.9469347145      1.16e-05  
    5    -349.9469485345      6.72e-06  
    6    -349.9469523620      3.44e-06  
    7    -349.9469541498      1.63e-06  
    8    -349.9469553397      1.37e-06  
    9    -349.9469563568      6.77e-07  
   10    -349.9469566996      3.63e-07  
   11    -349.9469567587      1.66e-07  
   12    -349.9469567704      1.13e-07  
   13    -349.9469567772      5.64e-08  
   14    -349.9469567793      2.23e-08  
   15    -349.9469567795      9.45e-09  Convergence criterion met
 ---------------------------------------
 SCF time:   CPU 1632.01s  wall 61.00s 
<S^2> =          0.766233156
(3)  G-ENP(liq) elect-nuc-pol free energy of system     -349.946956780 a.u.
(4)  G-CDS(liq) cavity-dispersion-solvent structure 
     free energy                                               -1.6422 kcal/mol
(6)  G-S(liq) free energy of system                     -349.949573869 a.u.
 SCF   energy in the final basis set =     -349.9469567795
 Total energy in the final basis set =     -349.9495738693
 
 --------------------------------------------------------------
 
                    Orbital Energies (a.u.)
 --------------------------------------------------------------
 
 Alpha MOs
 -- Occupied --
-19.2541 -19.1899 -19.1655 -10.4040 -10.2813 -10.2786  -2.1126  -1.2293
 -1.1123  -1.0918  -0.9026  -0.7077  -0.6522  -0.5939  -0.5779  -0.5737
 -0.5691  -0.5317  -0.4892  -0.4607  -0.4277  -0.4144  -0.3872  -0.3666
 -0.3568
 -- Virtual --
  0.0283   0.0464   0.0479   0.0552   0.0807   0.0893   0.1022   0.1059
  0.1170   0.1281   0.1297   0.1430   0.1451   0.1543   0.1582   0.1683
  0.1732   0.1748   0.1877   0.1908   0.1973   0.2113   0.2307   0.2368
  0.2464   0.2612   0.2660   0.2760   0.2838   0.2960   0.3050   0.3193
  0.3233   0.3361   0.3464   0.3524   0.3586   0.3744   0.3753   0.3794
  0.3875   0.3972   0.3996   0.4116   0.4173   0.4231   0.4304   0.4365
  0.4453   0.4498   0.4568   0.4663   0.4682   0.4816   0.4842   0.4851
  0.4981   0.5036   0.5129   0.5195   0.5238   0.5286   0.5373   0.5423
  0.5520   0.5718   0.5865   0.5935   0.6034   0.6114   0.6290   0.6353
  0.6569   0.6650   0.6799   0.6910   0.7017   0.7110   0.7277   0.7304
  0.7344   0.7496   0.7679   0.7765   0.7890   0.7920   0.8009   0.8105
  0.8137   0.8337   0.8382   0.8431   0.8492   0.8591   0.8983   0.9079
  0.9137   0.9310   0.9389   0.9617   0.9819   1.0074   1.0156   1.0462
  1.0476   1.0530   1.0840   1.1114   1.1320   1.1348   1.1943   1.2171
  1.2353   1.2536   1.2591   1.2650   1.2762   1.2815   1.2922   1.3011
  1.3187   1.3466   1.3614   1.3909   1.4200   1.4300   1.4643   1.5268
  1.5533   1.5627   1.5707   1.6110   1.6339   1.6456   1.7002   1.7056
  1.8313   1.8451   1.8623   1.8791   1.8971   1.9054   1.9150   1.9305
  1.9359   1.9661   1.9728   2.0100   2.0760   2.1025   2.1350   2.1669
  2.2035   2.2155   2.2303   2.2552   2.2737   2.3185   2.3311   2.3769
  2.4106   2.4353   2.5020   2.5320   2.6327   2.6751   2.7181   2.8457
  2.8755   2.8992   2.9189   2.9316   2.9666   2.9863   3.0104   3.0150
  3.0279   3.0691   3.0805   3.0950   3.1061   3.1587   3.1711   3.2250
  3.2292   3.2761   3.3006   3.3060   3.3375   3.3570   3.3829   3.3962
  3.4149   3.4376   3.4568   3.4875   3.5036   3.5058   3.5417   3.5521
  3.5841   3.6211   3.6329   3.6358   3.6464   3.6688   3.6869   3.7229
  3.7460   3.8133   3.8325   3.8518   3.8665   3.8819   3.9499   4.0672
  4.0981   4.1142   4.1557   4.1698   4.1971   4.2324   4.2383   4.3002
  4.3396   4.3974   4.4595   4.4756   4.5502   4.6676   4.6817   4.7565
  4.7663   4.7976   4.8107   4.8557   4.8565   5.0115   5.1283   5.1350
  5.2067   5.2327   5.2598   5.2684   5.2793   5.2878   5.3032   5.3102
  5.3275   5.3643   5.5012   5.5119   5.5411   5.5623   5.5863   5.6045
  5.6447   5.6796   5.6921   5.8123   5.9108   5.9935   6.0171   6.0413
  6.0709   6.2220   6.2531   6.3002   6.3350   6.3753   6.4691   6.5465
  6.5777   6.6381   6.6494   6.6841   6.6965   6.7209   6.7826   6.8624
  6.9010   6.9332   7.0387   7.2033   7.2823   7.3394   7.3450   7.4643
  7.6043  14.8520  23.3884  23.8398  23.8751  44.1393  44.2129  44.3418
 
 Beta MOs
 -- Occupied --
-19.2389 -19.1855 -19.1655 -10.4044 -10.2813 -10.2755  -2.1127  -1.2143
 -1.1040  -1.0629  -0.8941  -0.7028  -0.6342  -0.5900  -0.5684  -0.5649
 -0.5466  -0.5286  -0.4601  -0.4328  -0.4046  -0.3862  -0.3803  -0.3437
 -- Virtual --
 -0.0679   0.0287   0.0464   0.0481   0.0557   0.0893   0.0902   0.1047
  0.1068   0.1175   0.1281   0.1301   0.1435   0.1455   0.1554   0.1589
  0.1686   0.1741   0.1785   0.1885   0.1920   0.1975   0.2123   0.2310
  0.2374   0.2474   0.2627   0.2664   0.2772   0.2846   0.2984   0.3060
  0.3203   0.3241   0.3372   0.3470   0.3540   0.3596   0.3753   0.3764
  0.3800   0.3886   0.3987   0.4005   0.4124   0.4190   0.4242   0.4313
  0.4371   0.4462   0.4505   0.4581   0.4670   0.4687   0.4843   0.4855
  0.4899   0.4994   0.5060   0.5135   0.5206   0.5245   0.5294   0.5389
  0.5466   0.5528   0.5724   0.5872   0.5945   0.6039   0.6156   0.6337
  0.6376   0.6584   0.6658   0.6807   0.6921   0.7038   0.7120   0.7298
  0.7312   0.7353   0.7514   0.7716   0.7781   0.7906   0.7956   0.8028
  0.8112   0.8156   0.8353   0.8395   0.8449   0.8508   0.8609   0.8993
  0.9116   0.9155   0.9327   0.9408   0.9703   0.9832   1.0090   1.0193
  1.0489   1.0492   1.0559   1.0855   1.1137   1.1332   1.1364   1.1961
  1.2185   1.2364   1.2567   1.2614   1.2657   1.2779   1.2847   1.2938
  1.3038   1.3223   1.3498   1.3652   1.3926   1.4210   1.4321   1.4676
  1.5292   1.5564   1.5645   1.5736   1.6146   1.6367   1.6470   1.7018
  1.7067   1.8384   1.8491   1.8683   1.8818   1.9033   1.9146   1.9195
  1.9358   1.9413   1.9733   1.9806   2.0146   2.0871   2.1082   2.1370
  2.1736   2.2060   2.2199   2.2325   2.2593   2.2805   2.3266   2.3373
  2.3806   2.4145   2.4406   2.5073   2.5344   2.6361   2.6805   2.7308
  2.8494   2.8846   2.9012   2.9215   2.9365   2.9753   2.9930   3.0137
  3.0184   3.0312   3.0723   3.0829   3.0977   3.1106   3.1708   3.1840
  3.2314   3.2338   3.2786   3.3032   3.3074   3.3392   3.3664   3.3853
  3.3995   3.4211   3.4425   3.4611   3.4924   3.5082   3.5123   3.5499
  3.5638   3.5926   3.6233   3.6367   3.6406   3.6490   3.6715   3.6892
  3.7251   3.7591   3.8146   3.8345   3.8543   3.8685   3.8833   3.9534
  4.0710   4.1013   4.1161   4.1572   4.1718   4.1986   4.2344   4.2425
  4.3015   4.3404   4.3975   4.4609   4.4779   4.5558   4.6703   4.6850
  4.7614   4.7727   4.7993   4.8136   4.8578   4.8625   5.0154   5.1328
  5.1376   5.2079   5.2488   5.2653   5.2777   5.2890   5.3022   5.3135
  5.3282   5.3553   5.3659   5.5113   5.5262   5.5492   5.5734   5.5897
  5.6162   5.6482   5.6839   5.6957   5.8196   5.9216   5.9953   6.0252
  6.0507   6.0713   6.2234   6.2586   6.3073   6.3477   6.3804   6.4859
  6.5483   6.6053   6.6528   6.6648   6.7032   6.7089   6.7331   6.8032
  6.8957   6.9208   6.9523   7.0414   7.2102   7.2943   7.3634   7.3696
  7.4732   7.6123  14.8519  23.3906  23.8399  23.8766  44.1573  44.2167
 44.3437
 --------------------------------------------------------------
 
          Ground-State Mulliken Net Atomic Charges

     Atom                 Charge (a.u.)    Spin (a.u.)
  --------------------------------------------------------
      1 O                    -0.504249       0.621196
      2 C                     0.729994      -0.034475
      3 C                     0.027407      -0.009493
      4 O                    -0.751168       0.175032
      5 O                    -0.545963      -0.002252
      6 C                    -0.228241       0.244254
      7 H                     0.092988       0.001826
      8 H                     0.093926      -0.001045
      9 H                     0.119573       0.003335
     10 H                     0.095536      -0.000268
     11 Li                    0.870198       0.001891
  --------------------------------------------------------
  Sum of atomic charges =    -0.000000
  Sum of spin   charges =     1.000000

  Building new vdw surfaces
         Merz-Kollman RESP Net Atomic Charges

     Atom                 Charge (a.u.)
  ----------------------------------------
      1 O                    -0.493786
      2 C                     0.855247
      3 C                    -0.296473
      4 O                    -0.761535
      5 O                    -0.644211
      6 C                    -0.359942
      7 H                     0.206317
      8 H                     0.206317
      9 H                     0.207611
     10 H                     0.207611
     11 Li                    0.872845
  ----------------------------------------
  Sum of atomic charges =     0.000000

  Related Dipole Moment =     9.3164 (X  6.8968 Y  0.5453 Z -6.2396)

 -----------------------------------------------------------------
                    Cartesian Multipole Moments
 -----------------------------------------------------------------
    Charge (ESU x 10^10)
                -0.0000
    Dipole Moment (Debye)
         X       6.9006      Y       0.5539      Z      -6.3545
       Tot       9.3971
    Quadrupole Moments (Debye-Ang)
        XX     -40.1907     XY       6.4034     YY     -34.8448
        XZ      -6.2757     YZ      -6.3916     ZZ     -19.4457
    Octopole Moments (Debye-Ang^2)
       XXX     -23.1289    XXY     -17.2741    XYY      -4.6145
       YYY     -40.6114    XXZ       1.7144    XYZ      -5.5836
       YYZ      -1.7666    XZZ       4.3333    YZZ       4.4026
       ZZZ     -58.6659
    Hexadecapole Moments (Debye-Ang^3)
      XXXX    -505.6910   XXXY      38.8822   XXYY    -105.4767
      XYYY      27.5836   YYYY    -139.8744   XXXZ    -120.3542
      XXYZ      13.2416   XYYZ     -37.7360   YYYZ      18.3974
      XXZZ    -158.8166   XYZZ      29.0909   YYZZ     -55.6774
      XZZZ    -153.2404   YZZZ     -33.3398   ZZZZ    -121.9972
 -----------------------------------------------------------------
 Calculating analytic gradient of the SCF energy
 Gradient of CDS energy
            1           2           3           4           5           6
    1   0.0006664  -0.0019904  -0.0000639   0.0007428   0.0008856   0.0007920
    2   0.0002547   0.0000141  -0.0014388   0.0000930  -0.0002133   0.0012692
    3  -0.0000740   0.0005154   0.0002170  -0.0009231   0.0007343   0.0000512
            7           8           9          10          11
    1  -0.0002547  -0.0001900  -0.0002394  -0.0002250  -0.0001233
    2   0.0001999   0.0003219  -0.0002393  -0.0000791  -0.0001823
    3  -0.0001036  -0.0002888  -0.0002083   0.0001348  -0.0000548
 Gradient of SCF Energy
            1           2           3           4           5           6
    1  -0.0057951   0.0029310  -0.0034750  -0.0034876  -0.0020108  -0.0060028
    2  -0.0004173   0.0026994   0.0026968  -0.0028779  -0.0005185  -0.0029364
    3   0.0040353   0.0002411   0.0026027   0.0083983  -0.0056589   0.0027002
            7           8           9          10          11
    1   0.0030422   0.0016584  -0.0001605   0.0066669   0.0066331
    2  -0.0036651  -0.0004355   0.0016955   0.0022823   0.0014767
    3  -0.0028255   0.0001851   0.0008683  -0.0038866  -0.0066600
 Max gradient component =       8.398E-03
 RMS gradient           =       3.750E-03
 Computing fast CPCM-SWIG gradient
 Updating gradient with PCM contributions...
 -- total gradient after adding PCM contribution --
---------------------------------------------------
  Atom         X              Y              Z     
---------------------------------------------------
   1      -0.000193       0.000174       0.000049
   2      -0.000004      -0.000146      -0.000068
   3      -0.000082      -0.000167      -0.000086
   4       0.000109      -0.000041       0.000112
   5       0.000082       0.000037      -0.000073
   6      -0.000021       0.000164      -0.000004
   7       0.000006      -0.000008       0.000002
   8       0.000049       0.000005       0.000065
   9       0.000021      -0.000016      -0.000004
  10       0.000017      -0.000019       0.000004
  11       0.000016       0.000017       0.000003
---------------------------------------------------
 Number of fixed atoms: 0
 Gradient time:  CPU 283.51 s  wall 12.63 s
 ----------------------------------------------------------------
             Standard Nuclear Orientation (Angstroms)
    I     Atom           X                Y                Z
 ----------------------------------------------------------------
    1      O       0.5304065220    -0.0275723826    -0.8268946928
    2      C      -0.6669531272     0.5365184776    -0.4819080819
    3      C       1.8580043798    -0.5334526641     0.9728291698
    4      O      -1.2218927332     0.8706232989    -1.5889473251
    5      O      -1.0599597951     0.6475077541     0.6642512962
    6      C       2.2980685811     0.7337063757     1.0358122904
    7      H       2.4111853630    -1.2931688715     0.4304176551
    8      H       0.9918176028    -0.8563923599     1.5379169265
    9      H       1.7630701508     1.4883707494     1.6033166067
   10      H       3.1900372448     1.0474359352     0.5015115399
   11      Li      0.3465056450     0.8537004183    -2.5882851196
 ----------------------------------------------------------------
 Nuclear Repulsion Energy =         243.34827548 hartrees
 There are       25 alpha and       24 beta electrons
 Discretize the solute cavity surface with Lebedev spheres
	Using 110 Lebedev grid points for each H atom
	Using 194 Lebedev grid points for other atoms
	Atomic van der Waals radii will be scaled by 1.20
 Remove points where switching function is < 1.0e-08
 Keep 840 surface tesserae and discard 958 interior tesserae
 Molecular Surface Area = 163.726 Angst**2

                       Distance Matrix (Angstroms)
             O (  1)   C (  2)   C (  3)   O (  4)   O (  5)   C (  6)
   C (  2)  1.367803
   C (  3)  2.292910  3.104273
   O (  4)  2.111405  1.282622  4.244985
   O (  5)  2.282217  1.216739  3.162974  2.270002
[...]
    11    1.201152348032099e-04   1.031179356159453e-04  -2.510428364551069e-04


    11 Order 1, Length 33
    Atom      X          Y          Z
     1    4.058431761083319e-03  -2.244240319166717e-03   5.931131871847787e-03
     2    3.412261006392669e-03  -3.782606144731526e-03   1.084306096557469e-02
     3   -4.851724865270587e-03  -4.010688490725721e-03  -4.016084579328265e-03
     4   -3.702469735367431e-02   2.874037743879145e-03   1.473852122006851e-02
     5    3.506435467731290e-05   9.047714867257524e-04  -2.298305383461610e-03
     6    4.010858688271215e-04   4.715762948880778e-03  -1.103384590025177e-03
     7    9.833444360693073e-05   1.312188628468190e-04   2.627195937741111e-04
     8    3.082699190162492e-04  -3.229886372915265e-05   5.135784508914415e-04
     9    5.265980839589329e-05  -1.172621833442362e-04   6.829958461334817e-05
    10   -1.006558127048339e-04  -1.130482495333225e-04   1.201152348032099e-04
    11    3.361062153235642e-02   1.668765285917491e-03  -2.505985059846999e-02

Order 1, Length 33
    Atom      X          Y          Z
     1    4.462120609758620e-03  -7.766035259544470e-03   1.113302179466709e-02
     2   -3.680811525824866e-03   4.345116710481786e-03   1.359129306830040e-03
     3   -4.224245844261685e-03  -4.231167958177109e-03  -3.711926575496594e-03
     4   -3.635729463758531e-04  -3.327465739530701e-03   1.378322431339444e-03
     5    7.229134505344159e-04   1.737717031823346e-04   2.027067762535125e-04
     6    9.118670272287399e-04   4.668305711414484e-03  -7.826633809541693e-04
     7    2.508004141499047e-04   1.217560479057500e-05   3.515091824049444e-04
     8    2.572472480872169e-04   3.653225621163797e-05   3.052965994444864e-04
     9    4.571520278266918e-05  -1.329153217865074e-04   1.124813403371916e-05
    10   -5.161920583086901e-05  -9.808859732256454e-05   1.031179356159453e-04
    11    1.668765285917491e-03   6.316721961108436e-03  -1.035008974865364e-02

Order 1, Length 33
    Atom      X          Y          Z
     1   -1.308050012380129e-02   1.326071376670730e-02  -2.221232796486808e-02
     2    1.393109159953616e-02  -7.698502483855416e-04  -1.419442859701996e-02
     3    8.076755050064124e-03   8.028671133707133e-03   6.973709121439986e-03
     4    2.039865789680435e-02  -9.438550189108221e-04  -1.303070734232560e-02
     5   -1.902545677283448e-03   2.418853275606064e-04   1.185556495369187e-03
     6   -1.407002906781183e-03  -9.782504184173932e-03   1.972134020263887e-03
     7   -3.141485749954829e-04  -1.165043220375046e-04  -5.619024479527764e-04
     8   -5.109406577775825e-04  -4.896005930699008e-05  -6.146735349170282e-04
     9   -1.288084653807510e-04   2.451156429632250e-04  -1.807674526100258e-04
    10   -3.215951200100160e-06   2.456176238595114e-04  -2.510428364551069e-04
    11   -2.505985059846999e-02  -1.035008974865364e-02   4.091512731144920e-02




 # Finishing finite difference calculation for IDERIV #
 ######################################################
 ######################################################
 Requested basis set is def2-TZVPPD
 There are 119 shells and 321 basis functions
 **********************************************************************
 **                                                                  **
 **                       VIBRATIONAL ANALYSIS                       **
 **                       --------------------                       **
 **                                                                  **
 **        VIBRATIONAL FREQUENCIES (CM**-1) AND NORMAL MODES         **
 **     FORCE CONSTANTS (mDYN/ANGSTROM) AND REDUCED MASSES (AMU)     **
 **                  INFRARED INTENSITIES (KM/MOL)                   **
 **                                                                  **
 **********************************************************************
 

 Mode:                 1                      2                      3
 Frequency:      -283.24                  58.37                  73.85
 Force Cnst:      0.3565                 0.0080                 0.0109
 Red. Mass:       7.5424                 3.9973                 3.4073
 IR Active:          YES                    YES                    YES
 IR Intens:      816.486                 26.788                  2.212
 Raman Active:       YES                    YES                    YES
               X      Y      Z        X      Y      Z        X      Y      Z
 O         -0.271  0.017 -0.266    0.073  0.167 -0.030    0.088  0.218  0.022
 C         -0.082  0.015 -0.005    0.034  0.053 -0.005   -0.026 -0.006 -0.014
 C          0.384 -0.082  0.405    0.043 -0.079 -0.107   -0.122  0.021  0.086
 O         -0.058 -0.022 -0.050   -0.073 -0.119 -0.006   -0.066 -0.137 -0.033
 O         -0.018  0.039 -0.018    0.089  0.122  0.007   -0.072 -0.050 -0.025
 C          0.104 -0.061  0.103   -0.069 -0.057  0.251    0.237 -0.097 -0.013
 H          0.377 -0.078  0.380    0.146  0.108 -0.263   -0.324 -0.183  0.166
 H          0.260 -0.083  0.226    0.040 -0.302 -0.238   -0.226  0.318  0.095
 H         -0.015 -0.019 -0.058   -0.176 -0.250  0.405    0.444  0.102 -0.081
 H          0.069 -0.001  0.070   -0.056  0.156  0.398    0.332 -0.393 -0.028
 Li        -0.003  0.169 -0.188   -0.212 -0.205 -0.216   -0.071  0.092 -0.040
 TransDip  -0.697  0.204 -0.557   -0.094 -0.106 -0.086    0.001  0.048  0.003

 Mode:                 4                      5                      6
 Frequency:       107.49                 125.92                 143.60
 Force Cnst:      0.0263                 0.0883                 0.0493
 Red. Mass:       3.8566                 9.4496                 4.0608
 IR Active:          YES                    YES                    YES
 IR Intens:        9.992                 48.859                 26.692
 Raman Active:       YES                    YES                    YES
               X      Y      Z        X      Y      Z        X      Y      Z
 O         -0.116 -0.074  0.090    0.007 -0.088  0.002    0.070  0.197  0.153
 C         -0.106 -0.001 -0.005    0.009 -0.043 -0.021   -0.041  0.059  0.027
 C          0.117  0.056 -0.189   -0.039 -0.070 -0.066    0.181 -0.165  0.030
 O          0.002 -0.016 -0.066   -0.121 -0.386 -0.058    0.028 -0.044 -0.037
 O         -0.185  0.062 -0.041    0.165  0.329 -0.004   -0.169  0.037 -0.013
 C          0.235  0.002  0.144   -0.112 -0.045 -0.040   -0.117 -0.053 -0.201
 H         -0.005  0.171 -0.472    0.013 -0.031 -0.067    0.202 -0.076 -0.074
 H          0.208 -0.062 -0.116   -0.023 -0.132 -0.076    0.367 -0.319  0.234
 H          0.388 -0.130  0.466   -0.172 -0.085 -0.045   -0.160 -0.135 -0.135
 H          0.176  0.099  0.101   -0.118  0.011 -0.018   -0.335  0.115 -0.464
 Li         0.149 -0.044  0.128    0.171  0.635  0.382    0.112 -0.102  0.073
 TransDip   0.088 -0.009  0.049    0.047  0.176  0.130    0.130 -0.083  0.060

 Mode:                 7                      8                      9
 Frequency:       280.01                 314.97                 435.32
 Force Cnst:      0.0784                 0.1378                 0.8931
 Red. Mass:       1.6981                 2.3567                 7.9992
 IR Active:          YES                    YES                    YES
 IR Intens:        7.623                  3.947                498.171
 Raman Active:       YES                    YES                    YES
               X      Y      Z        X      Y      Z        X      Y      Z
 O         -0.026  0.067 -0.053   -0.030  0.077 -0.131    0.172 -0.077  0.084
 C         -0.037  0.020  0.008   -0.018  0.016 -0.016   -0.023  0.016 -0.263
 C          0.020 -0.004 -0.054   -0.067  0.025  0.039    0.116 -0.059  0.123
 O         -0.056 -0.002  0.017   -0.085 -0.000  0.014   -0.255  0.180 -0.075
 O          0.007 -0.013  0.026    0.107 -0.046  0.026    0.097 -0.019 -0.224
 C          0.006 -0.004 -0.013   -0.023  0.003  0.014    0.069  0.009  0.064
 H          0.250 -0.072  0.270   -0.326  0.084 -0.305    0.231 -0.065  0.252
 H         -0.244  0.079 -0.416    0.142 -0.024  0.334    0.199 -0.085  0.232
 H         -0.288  0.083 -0.405    0.293 -0.074  0.415    0.022 -0.001  0.028
 H          0.297 -0.093  0.421   -0.293  0.071 -0.396    0.078  0.007  0.082
 Li         0.186 -0.139  0.144    0.230 -0.153  0.139   -0.385 -0.114  0.535
 TransDip   0.039 -0.064  0.047   -0.037 -0.037  0.036    0.377 -0.154  0.587

 Mode:                10                     11                     12
 Frequency:       588.07                 662.95                 818.48
 Force Cnst:      2.0876                 3.3952                 4.9421
 Red. Mass:      10.2455                13.1115                12.5213
 IR Active:          YES                    YES                    YES
 IR Intens:      160.067                113.709                 31.891
 Raman Active:       YES                    YES                    YES
               X      Y      Z        X      Y      Z        X      Y      Z
 O         -0.029 -0.041  0.403    0.379 -0.180 -0.213   -0.043 -0.194  0.015
 C         -0.176  0.005 -0.173    0.126 -0.129  0.016    0.373  0.825  0.035
 C          0.024 -0.026  0.006    0.011 -0.018  0.021   -0.002 -0.001  0.004
 O         -0.332  0.093 -0.071   -0.313  0.070  0.441   -0.145 -0.198 -0.004
 O          0.255 -0.097  0.019   -0.343  0.200 -0.165   -0.102 -0.234 -0.032
 C          0.022  0.008  0.008    0.018  0.013  0.020   -0.007 -0.002 -0.001
 H          0.110 -0.028  0.098    0.079 -0.041  0.126    0.035  0.037 -0.012
 H          0.086 -0.053  0.078    0.090 -0.028  0.140   -0.005 -0.049 -0.031
 H         -0.060  0.016 -0.085    0.056 -0.012  0.088    0.042  0.027  0.009
 H          0.061 -0.003  0.070   -0.019  0.025 -0.033    0.018 -0.055  0.010
 Li         0.437  0.135 -0.553    0.337  0.033 -0.287    0.027  0.026 -0.013
 TransDip   0.382 -0.016 -0.135    0.339 -0.039  0.014    0.068  0.167 -0.016

 Mode:                13                     14                     15
 Frequency:       824.03                 928.60                 986.98
 Force Cnst:      0.4170                 3.7814                 0.7439
 Red. Mass:       1.0424                 7.4430                 1.2961
 IR Active:          YES                    YES                    YES
 IR Intens:        1.246                114.967                154.755
 Raman Active:       YES                    YES                    YES
               X      Y      Z        X      Y      Z        X      Y      Z
 O         -0.001 -0.002  0.001   -0.306  0.147  0.158   -0.021  0.012  0.007
 C          0.003  0.007 -0.001    0.390 -0.169 -0.063    0.021 -0.012 -0.002
 C          0.031 -0.009 -0.022    0.028  0.011  0.037    0.007 -0.004  0.010
 O         -0.001 -0.001 -0.000   -0.008 -0.016  0.226    0.003 -0.002  0.010
 O         -0.000 -0.002 -0.000    0.043 -0.006 -0.314    0.002  0.000 -0.013
 C          0.031 -0.010 -0.023   -0.007 -0.018  0.000   -0.087  0.031 -0.125
 H         -0.319 -0.362  0.122   -0.288  0.111 -0.424    0.076 -0.024  0.109
 H         -0.054  0.479  0.133   -0.235  0.076 -0.333    0.097 -0.017  0.139
 H         -0.311 -0.366  0.136   -0.135  0.040 -0.197    0.363 -0.151  0.539
 H         -0.053  0.479  0.131   -0.070 -0.000 -0.097    0.385 -0.147  0.558
 Li        -0.000  0.000  0.000    0.016 -0.017  0.035    0.003  0.001 -0.002
 TransDip  -0.033  0.013  0.003   -0.017 -0.041 -0.341    0.277 -0.085  0.273

 Mode:                16                     17                     18
 Frequency:      1009.00                1022.18                1237.29
 Force Cnst:      0.6212                 0.8102                 1.3645
 Red. Mass:       1.0356                 1.3160                 1.5128
 IR Active:          YES                    YES                    YES
 IR Intens:       37.037                233.439                  1.683
 Raman Active:       YES                    YES                    YES
               X      Y      Z        X      Y      Z        X      Y      Z
 O         -0.009  0.006 -0.012   -0.053  0.027 -0.002    0.001 -0.000 -0.001
 C          0.009 -0.002  0.003    0.042 -0.014 -0.001   -0.011  0.005 -0.004
 C         -0.032  0.006 -0.022   -0.074  0.011 -0.108   -0.114  0.037  0.092
 O          0.002 -0.003  0.002    0.007 -0.008  0.014    0.006 -0.003  0.009
 O         -0.001 -0.001 -0.001    0.003 -0.001 -0.020    0.002 -0.001 -0.005
 C          0.019 -0.003  0.012    0.033 -0.006  0.044    0.115 -0.036 -0.091
 H         -0.187  0.062 -0.254    0.470 -0.163  0.682    0.272  0.407 -0.040
 H          0.408 -0.155  0.567    0.258 -0.078  0.353   -0.072 -0.465 -0.136
 H         -0.282  0.074 -0.373    0.048 -0.013  0.068   -0.243 -0.420  0.088
 H          0.223 -0.049  0.325   -0.131  0.064 -0.190    0.033  0.472  0.080
 Li         0.002  0.000 -0.001    0.004  0.002 -0.002   -0.000  0.000 -0.000
 TransDip   0.134 -0.052  0.132    0.388 -0.104  0.279   -0.029  0.014 -0.026

 Mode:                19                     20                     21
 Frequency:      1246.94                1343.41                1460.09
 Force Cnst:     11.9991                 1.3960                 1.3976
 Red. Mass:      13.0981                 1.3129                 1.1127
 IR Active:          YES                    YES                    YES
 IR Intens:      546.767                 59.087                 26.889
 Raman Active:       YES                    YES                    YES
               X      Y      Z        X      Y      Z        X      Y      Z
 O         -0.009  0.005 -0.009   -0.010  0.004 -0.006    0.000  0.000  0.000
 C          0.594 -0.288  0.219   -0.010  0.006 -0.009    0.000  0.000 -0.002
 C         -0.021 -0.044  0.028   -0.030 -0.112  0.006   -0.021 -0.065 -0.001
 O         -0.300  0.165 -0.463    0.011 -0.007  0.012    0.000 -0.000  0.000
 O         -0.151  0.050  0.299    0.003 -0.001 -0.003   -0.001  0.000  0.001
 C          0.032  0.041 -0.014    0.036  0.110  0.002   -0.022 -0.067 -0.002
 H         -0.025 -0.000 -0.044   -0.288 -0.387  0.090    0.333  0.329 -0.175
 H         -0.076 -0.137 -0.099   -0.015 -0.473 -0.145   -0.091  0.452  0.176
 H          0.004  0.010  0.007    0.294  0.384 -0.085    0.343  0.321 -0.160
 H          0.012  0.156  0.016    0.007  0.477  0.132   -0.085  0.458  0.184
 Li         0.025 -0.010  0.014    0.001  0.002 -0.004    0.000  0.000  0.000
 TransDip   0.613 -0.203  0.379    0.200 -0.038  0.139    0.068  0.151 -0.001

 Mode:                22                     23                     24
 Frequency:      1620.83                1740.65                3155.16
 Force Cnst:      4.3124                20.3427                 6.1677
 Red. Mass:       2.7861                11.3956                 1.0515
 IR Active:          YES                    YES                    YES
 IR Intens:      414.095                686.262                 22.018
 Raman Active:       YES                    YES                    YES
               X      Y      Z        X      Y      Z        X      Y      Z
 O          0.023 -0.008  0.012    0.046 -0.020 -0.006    0.000 -0.000  0.000
 C         -0.010 -0.003  0.084   -0.158  0.019  0.763    0.000 -0.000 -0.001
 C          0.072  0.264 -0.009   -0.048 -0.126 -0.011   -0.002 -0.017 -0.002
 O         -0.020  0.013 -0.023   -0.071  0.042 -0.134   -0.000  0.000 -0.000
 O          0.014 -0.004 -0.043    0.143 -0.039 -0.416   -0.000  0.000  0.000
 C         -0.089 -0.258 -0.012    0.040  0.123  0.001   -0.023 -0.056  0.001
 H         -0.342 -0.188  0.251    0.159  0.057 -0.091   -0.139  0.187  0.138
 H          0.217 -0.358 -0.193   -0.108  0.138  0.098    0.174  0.060 -0.113
 H          0.362  0.175 -0.209   -0.146 -0.041  0.088   -0.314  0.427  0.329
 H         -0.190  0.348  0.223    0.094 -0.108 -0.083    0.574  0.194 -0.346
 Li        -0.002 -0.003  0.005    0.015  0.004 -0.023   -0.000 -0.000  0.000
 TransDip  -0.606  0.111 -0.212   -0.504  0.068  0.667   -0.116 -0.069 -0.066

 Mode:                25                     26                     27
 Frequency:      3172.94                3245.37                3271.83
 Force Cnst:      6.3220                 6.9321                 7.0548
 Red. Mass:       1.0658                 1.1171                 1.1185
 IR Active:          YES                    YES                    YES
 IR Intens:       76.955                  1.947                  4.832
 Raman Active:       YES                    YES                    YES
               X      Y      Z        X      Y      Z        X      Y      Z
 O         -0.001  0.000 -0.001   -0.000 -0.000  0.000    0.000 -0.000 -0.000
 C         -0.000  0.000  0.001    0.000  0.000  0.000   -0.000 -0.000  0.001
 C         -0.011 -0.065 -0.004    0.035 -0.006 -0.027   -0.070  0.015  0.054
 O          0.000 -0.000 -0.000   -0.000 -0.000  0.000    0.000  0.000 -0.000
 O          0.000  0.000 -0.001    0.000 -0.000 -0.000   -0.000  0.000 -0.000
 C          0.010  0.028  0.001   -0.068  0.024  0.053   -0.034  0.013  0.027
 H         -0.372  0.503  0.366   -0.136  0.188  0.135    0.284 -0.397 -0.285
 H          0.477  0.170 -0.313   -0.287 -0.107  0.185    0.550  0.208 -0.354
 H          0.119 -0.165 -0.126    0.325 -0.463 -0.345    0.160 -0.230 -0.171
 H         -0.198 -0.067  0.119    0.486  0.173 -0.291    0.248  0.090 -0.148
 Li         0.000  0.000 -0.000   -0.000 -0.000  0.000   -0.000  0.000 -0.000
 TransDip   0.222 -0.074  0.156   -0.034  0.004  0.028   -0.042  0.022  0.052

 STANDARD THERMODYNAMIC QUANTITIES AT   298.15 K  AND     1.00 ATM

   This Molecule has  1 Imaginary Frequencies
   Zero point vibrational energy:       42.707 kcal/mol

   Atom    1 Element O  Has Mass   15.99491
   Atom    2 Element C  Has Mass   12.00000
   Atom    3 Element C  Has Mass   12.00000
   Atom    4 Element O  Has Mass   15.99491
   Atom    5 Element O  Has Mass   15.99491
   Atom    6 Element C  Has Mass   12.00000
   Atom    7 Element H  Has Mass    1.00783
   Atom    8 Element H  Has Mass    1.00783
   Atom    9 Element H  Has Mass    1.00783
   Atom   10 Element H  Has Mass    1.00783
   Atom   11 Element Li Has Mass    7.01600
   Molecular Mass:    95.032050 amu
   Principal axes and moments of inertia in amu*Bohr^2:
                             1           2           3
    Eigenvalues --      342.23136   909.69399  1104.98355
          X               0.78286    -0.59972     0.16573
          Y              -0.17143     0.04816     0.98402
          Z               0.59812     0.79876     0.06511
   Rotational Symmetry Number is   1
   The Molecule is an Asymmetric Top
   Translational Enthalpy:        0.889 kcal/mol
   Rotational Enthalpy:           0.889 kcal/mol
   Vibrational Enthalpy:         46.117 kcal/mol
   gas constant (RT):             0.592 kcal/mol
   Translational Entropy:        39.566  cal/mol.K
   Rotational Entropy:           27.333  cal/mol.K
   Vibrational Entropy:          23.069  cal/mol.K

   Total Enthalpy:               48.487 kcal/mol
   Total Entropy:                89.968  cal/mol.K
Archival summary:
1\1\n0089.lr6\FREQ\ProcedureUnspecified\BasisUnspecified\33i14(2)\ewcspott\SunMay1719:48:512020SunMay1719:48:512020\0\\#,FREQ,ProcedureUnspecified,BasisUnspecified,\\0,2\O\C,1,1.36739\O,2,1.21674,1,123.922\O,2,1.28262,1,105.567,3,-179.276,0\Li,4,1.85979,2,95.5399,1,-19.5256,0\C,1,2.29313,2,113.576,3,-6.69319,0\H,6,1.08346,1,90.7091,2,38.8385,0\H,6,1.08508,1,93.3015,2,156.298,0\C,6,1.34288,1,91.0287,2,-82.4351,0\H,9,1.08527,6,121.275,1,87.4497,0\H,9,1.08605,6,121.242,1,-91.0865,0\\\@

 Total job time:  4961.58s(wall), 130654.53s(cpu) 
 Sun May 17 19:48:51 2020

        *************************************************************
        *                                                           *
        *  Thank you very much for using Q-Chem.  Have a nice day.  *
        *                                                           *
        *************************************************************


