
Running Job 1 of 1 mol.qin
qchem mol.qin_111340.0 /tmp/scratch/ 0
/clusterfs/mp/software/qchem/exe/qcprog.exe_s mol.qin_111340.0 /tmp/scratch/
                  Welcome to Q-Chem
     A Quantum Leap Into The Future Of Chemistry


 Q-Chem 5.2, Q-Chem, Inc., Pleasanton, CA (2019)

 Yihan Shao,  Zhengting Gan,  E. Epifanovsky,  A. T. B. Gilbert,  M. Wormit,  
 J. Kussmann,  A. W. Lange,  A. Behn,  Jia Deng,  Xintian Feng,  D. Ghosh,  
 M. Goldey,  P. R. Horn,  L. D. Jacobson,  I. Kaliman,  T. Kus,  A. Landau,  
 Jie Liu,  E. I. Proynov,  R. M. Richard,  R. P. Steele,  E. J. Sundstrom,  
 H. L. Woodcock III,  P. M. Zimmerman,  D. Zuev,  B. Alam,  B. Albrecht,  
 E. Alguire,  S. A. Baeppler,  D. Barton,  Z. Benda,  Y. A. Bernard,  
 E. J. Berquist,  K. B. Bravaya,  H. Burton,  K. Carter-Fenk,  D. Casanova,  
 Chun-Min Chang,  Yunqing Chen,  A. Chien,  K. D. Closser,  M. P. Coons,  
 S. Coriani,  S. Dasgupta,  A. L. Dempwolff,  M. Diedenhofen,  Hainam Do,  
 R. G. Edgar,  Po-Tung Fang,  S. Faraji,  S. Fatehi,  Qingguo Feng,  
 J. Fosso-Tande,  J. Gayvert,  Qinghui Ge,  A. Ghysels,  G. Gidofalvi,  
 J. Gomes,  J. Gonthier,  A. Gunina,  D. Hait,  M. W. D. Hanson-Heine,  
 P. H. P. Harbach,  A. W. Hauser,  M. F. Herbst,  J. E. Herr,  
 E. G. Hohenstein,  Z. C. Holden,  Kerwin Hui,  B. C. Huynh,  T.-C. Jagau,  
 Hyunjun Ji,  B. Kaduk,  K. Khistyaev,  Jaehoon Kim,  P. Klunzinger,  K. Koh,  
 D. Kosenkov,  L. Koulias,  T. Kowalczyk,  C. M. Krauter,  A. Kunitsa,  
 Ka Un Lao,  A. Laurent,  K. V. Lawler,  Joonho Lee,  D. Lefrancois,  
 S. Lehtola,  D. S. Levine,  Yi-Pei Li,  You-Sheng Lin,  Fenglai Liu,  
 Kuan-Yu Liu,  E. Livshits,  M. Loipersberger,  A. Luenser,  P. Manohar,  
 E. Mansoor,  S. F. Manzer,  Shan-Ping Mao,  Yuezhi Mao,  N. Mardirossian,  
 A. V. Marenich,  T. Markovich,  L. A. Martinez-Martinez,  S. A. Maurer,  
 N. J. Mayhall,  S. C. McKenzie,  J.-M. Mewes,  P. Morgante,  A. F. Morrison,  
 J. W. Mullinax,  K. Nanda,  T. S. Nguyen-Beck,  R. Olivares-Amaya,  
 J. A. Parkhill,  S. K. Paul,  Zheng Pei,  T. M. Perrine,  F. Plasser,  
 P. Pokhilko,  S. Prager,  A. Prociuk,  E. Ramos,  B. Rana,  D. R. Rehn,  
 F. Rob,  M. Scheurer,  M. Schneider,  N. Sergueev,  S. M. Sharada,  
 S. Sharma,  D. W. Small,  T. Stauch,  C. J. Stein,  T. Stein,  Yu-Chuan Su,  
 S. P. Veccham,  A. J. W. Thom,  A. Tkatchenko,  T. Tsuchimochi,  
 N. M. Tubman,  L. Vogt,  M. L. Vidal,  O. Vydrov,  M. A. Watson,  J. Wenzel,  
 M. de Wergifosse,  T. A. Wesolowski,  A. White,  J. Witte,  A. Yamada,  
 Jun Yang,  K. Yao,  S. Yeganeh,  S. R. Yost,  Zhi-Qiang You,  A. Zech,  
 Igor Ying Zhang,  Xing Zhang,  Yan Zhao,  Ying Zhu,  B. R. Brooks,  
 G. K. L. Chan,  C. J. Cramer,  M. S. Gordon,  W. J. Hehre,  A. Klamt,  
 M. W. Schmidt,  C. D. Sherrill,  D. G. Truhlar,  A. Aspuru-Guzik,  R. Baer,  
 A. T. Bell,  N. A. Besley,  Jeng-Da Chai,  A. E. DePrince, III,  
 R. A. DiStasio Jr.,  A. Dreuw,  B. D. Dunietz,  T. R. Furlani,  
 Chao-Ping Hsu,  Yousung Jung,  Jing Kong,  D. S. Lambrecht,  WanZhen Liang,  
 C. Ochsenfeld,  V. A. Rassolov,  L. V. Slipchenko,  J. E. Subotnik,  
 T. Van Voorhis,  J. M. Herbert,  A. I. Krylov,  P. M. W. Gill,  M. Head-Gordon

 Contributors to earlier versions of Q-Chem not listed above: 
 R. D. Adamson,  B. Austin,  J. Baker,  G. J. O. Beran,  K. Brandhorst,  
 S. T. Brown,  E. F. C. Byrd,  A. K. Chakraborty,  C.-L. Cheng,  
 Siu Hung Chien,  D. M. Chipman,  D. L. Crittenden,  H. Dachsel,  
 R. J. Doerksen,  A. D. Dutoi,  L. Fusti-Molnar,  W. A. Goddard III,  
 A. Golubeva-Zadorozhnaya,  S. R. Gwaltney,  G. Hawkins,  A. Heyden,  
 S. Hirata,  G. Kedziora,  F. J. Keil,  C. Kelley,  Jihan Kim,  R. A. King,  
 R. Z. Khaliullin,  P. P. Korambath,  W. Kurlancheek,  A. M. Lee,  M. S. Lee,  
 S. V. Levchenko,  Ching Yeh Lin,  D. Liotard,  R. C. Lochan,  I. Lotan,  
 P. E. Maslen,  N. Nair,  D. P. O'Neill,  D. Neuhauser,  E. Neuscamman,  
 C. M. Oana,  R. Olson,  B. Peters,  R. Peverati,  P. A. Pieniazek,  
 Y. M. Rhee,  J. Ritchie,  M. A. Rohrdanz,  E. Rosta,  N. J. Russ,  
 H. F. Schaefer III,  N. E. Schultz,  N. Shenvi,  A. C. Simmonett,  A. Sodt,  
 D. Stuck,  K. S. Thanthiriwatte,  V. Vanovschi,  Tao Wang,  A. Warshel,  
 C. F. Williams,  Q. Wu,  X. Xu,  W. Zhang

 Please cite Q-Chem as follows:
 Y. Shao et al., Mol. Phys. 113, 184-215 (2015)
 DOI: 10.1080/00268976.2014.952696

 Q-Chem 5.2.2 for Intel X86 EM64T Linux

 Parts of Q-Chem use Armadillo 8.300.2 (Tropical Shenanigans).
 http://arma.sourceforge.net/

 Q-Chem begins on Fri Jun 12 11:55:26 2020  

Host: 
0

     Scratch files written to /tmp/scratch//
 Nov2519 |scratch|qcdevops|jenkins|workspace|build_RNUM 6829   
Processing $rem in /clusterfs/mp/software/qchem/config/preferences:
	 MEM_TOTAL  96000 
NAlpha2: 60
NElect   59
Mult     2
Symmetry turned off for PCM/SM12/SMD calculation

Checking the input file for inconsistencies... 	...done.

--------------------------------------------------------------
User input:
--------------------------------------------------------------
$molecule
0 2
H      0.1499349052     -0.1708910144      0.9773770374
C      2.3013334408      0.2670142501      0.2404618931
H      2.6081297837      1.1597929842     -0.2959120888
H      2.6286840180      0.2718644717      1.2757999350
C      2.5623153930     -1.0220236657     -0.4927923903
H      2.1753648775     -1.8831135842      0.0549938154
H      2.1278552513     -1.0114454233     -1.4940054146
O      3.9985893263     -1.1135003006     -0.5899392340
C      4.4891497945     -2.1924562709     -1.2361656836
O      3.7045947293     -3.0559646582     -1.7129610394
O      5.7419312510     -2.2675603221     -1.3236734666
Li      5.3422683007     -3.8736672643     -2.2546326084
O      0.6730853592      0.4957803135      0.3961388477
H      0.1640335697      0.5631204845     -0.4723896028
$end

$rem
job_type = freq
basis = def2-tzvppd
max_scf_cycles = 200
gen_scfman = true
xc_grid = 3
scf_algorithm = diis
resp_charges = true
symmetry = false
sym_ignore = true
method = wb97xv
solvent_method = smd
ideriv = 1
thresh = 14
$end

$smx
solvent other
$end
--------------------------------------------------------------
 ----------------------------------------------------------------
             Standard Nuclear Orientation (Angstroms)
    I     Atom           X                Y                Z
 ----------------------------------------------------------------
    1      H       0.1499349052    -0.1708910144     0.9773770374
    2      C       2.3013334408     0.2670142501     0.2404618931
    3      H       2.6081297837     1.1597929842    -0.2959120888
    4      H       2.6286840180     0.2718644717     1.2757999350
    5      C       2.5623153930    -1.0220236657    -0.4927923903
    6      H       2.1753648775    -1.8831135842     0.0549938154
    7      H       2.1278552513    -1.0114454233    -1.4940054146
    8      O       3.9985893263    -1.1135003006    -0.5899392340
    9      C       4.4891497945    -2.1924562709    -1.2361656836
   10      O       3.7045947293    -3.0559646582    -1.7129610394
   11      O       5.7419312510    -2.2675603221    -1.3236734666
   12      Li      5.3422683007    -3.8736672643    -2.2546326084
   13      O       0.6730853592     0.4957803135     0.3961388477
   14      H       0.1640335697     0.5631204845    -0.4723896028
 ----------------------------------------------------------------
 Nuclear Repulsion Energy =         335.27555449 hartrees
 There are       30 alpha and       29 beta electrons
 Requested basis set is def2-TZVPPD
 There are 147 shells and 395 basis functions

 Total QAlloc Memory Limit  96000 MB
 Mega-Array Size       188 MB
 MEM_STATIC part       192 MB
 
 Citation of the SMD model:
 Marenich, A.V.; Cramer, C.J.; Truhlar, D.G.
 J. Phys. Chem. B 2009, 113, 6378-6396.
 iSolventCode=           0
 Solvent: other                                                           
 
 vradii
            1           2           3           4           5           6
    1   1.2000000   1.8500000   1.2000000   1.2000000   1.8500000   1.2000000
            7           8           9          10          11          12
    1   1.2000000   2.2940000   1.8500000   2.2940000   2.2940000   2.1476001
           13          14
    1   2.2940000   1.2000000
 Changing PCM_VDW_RADII to SMD_RADIUS
 Discretize the solute cavity surface with Lebedev spheres
	Using 110 Lebedev grid points for each H atom
	Using 194 Lebedev grid points for other atoms
	Atomic van der Waals radii will be scaled by 1.20
 Remove points where switching function is < 1.0e-08
 Keep 930 surface tesserae and discard 1282 interior tesserae
 Molecular Surface Area = 188.818 Angst**2

                       Distance Matrix (Angstroms)
             H (  1)   C (  2)   H (  3)   H (  4)   C (  5)   H (  6)
   C (  2)  2.315884
   H (  3)  3.071597  1.085760
   H (  4)  2.535604  1.085867  1.805303
   C (  5)  2.950492  1.505786  2.191161  2.192366
   H (  6)  2.808000  2.161785  3.093493  2.517895  1.091456
   H (  7)  3.275123  2.161696  2.525939  3.093467  1.091465  1.778050
   O (  8)  4.261119  2.340099  2.680987  2.697565  1.442459  2.081440
   C (  9)  5.274020  3.607764  3.957258  3.980475  2.373859  2.667656
   O ( 10)  5.310101  4.102096  4.580707  4.600513  2.632590  2.615299
   O ( 11)  6.400100  4.550637  4.756444  4.785211  3.514496  3.843035
   Li( 12)  7.149599  5.711219  6.053744  6.083825  4.354778  4.396130
   O ( 13)  1.027606  1.651593  2.159686  2.155994  2.581302  2.834142
   H ( 14)  1.625052  2.272419  2.522056  3.035704  2.874866  3.210553
             H (  7)   O (  8)   C (  9)   O ( 10)   O ( 11)   Li( 12)
   O (  8)  2.080240
   C (  9)  2.652731  1.349965
   O ( 10)  2.591160  2.262914  1.260360
   O ( 11)  3.829932  2.215730  1.258078  2.218979
   Li( 12)  4.370734  3.492162  2.142792  1.908932  1.898946
   O ( 13)  2.821477  3.823756  4.945036  5.123792  6.023870  6.922422
   H ( 14)  2.716533  4.186728  5.184900  5.212712  6.312716  7.048091
             O ( 13)
   H ( 14)  1.008965
 
 A cutoff of  1.0D-14 yielded   9941 shell pairs
 There are     71999 function pairs (     90644 Cartesian)
 Smallest overlap matrix eigenvalue = 6.53E-06
 Guess from superposition of atomic densities
 Warning:  Energy on first SCF cycle will be non-variational
 SAD guess density has 59.000000 electrons

 -----------------------------------------------------------------------
  General SCF calculation program by
  Eric Jon Sundstrom, Paul Horn, Yuezhi Mao, Dmitri Zuev, Alec White,
  David Stuck, Shaama M.S., Shane Yost, Joonho Lee, David Small,
  Daniel Levine, Susi Lehtola, Hugh Burton, Evgeny Epifanovsky,
  Bang C. Huynh
 -----------------------------------------------------------------------
 Exchange:     0.1670 Hartree-Fock + 1.0000 wB97X-V + LR-HF
 Correlation:  1.0000 wB97X-V
 Using SG-3 standard quadrature grid
 Nonlocal Correlation:  VV10 with C = 0.0100 and b = 6.00 and scale = 1.00000
 Grid used for NLC:  SG-1 standard quadrature
 
 Citation of the SMD model:
 Marenich, A.V.; Cramer, C.J.; Truhlar, D.G.
 J. Phys. Chem. B 2009, 113, 6378-6396.
 iSolventCode=           0
 Solvent: other                                                           
 
 vradii
            1           2           3           4           5           6
    1   1.2000000   1.8500000   1.2000000   1.2000000   1.8500000   1.2000000
            7           8           9          10          11          12
    1   1.2000000   2.2940000   1.8500000   2.2940000   2.2940000   2.1476001
           13          14
    1   2.2940000   1.2000000
 using 32 threads for integral computing
 -------------------------------------------------------
 OpenMP Integral computing Module                
 Release: version 1.0, May 2013, Q-Chem Inc. Pittsburgh 
 -------------------------------------------------------
 using 32 threads for integral computing
 -------------------------------------------------------
 OpenMP Integral computing Module                
 Release: version 1.0, May 2013, Q-Chem Inc. Pittsburgh 
 -------------------------------------------------------
 -------------------------------------------------------
 OpenMP BLAS3 based DFT computing Module                
 Release: version 1.0, May 2013, Q-Chem Inc. Pittsburgh 
 -------------------------------------------------------
 -------------------------------------------------------
 OpenMP BLAS3 based DFT computing Module                
 Release: version 1.0, May 2013, Q-Chem Inc. Pittsburgh 
 -------------------------------------------------------
 -------------------------------------------------------
 OpenMP BLAS3 based DFT computing Module                
 Release: version 1.0, May 2013, Q-Chem Inc. Pittsburgh 
 -------------------------------------------------------
 A unrestricted SCF calculation will be
 performed using DIIS
 SCF converges when DIIS error is below 1.0e-08
 ---------------------------------------
  Cycle       Energy         DIIS error
 ---------------------------------------
    1    -427.5487644016      1.11e-02  
    2    -426.1384248762      1.87e-03  
    3    -426.1517401624      2.03e-03  
    4    -426.3515920494      1.38e-04  
    5    -426.3535852307      1.02e-04  
    6    -426.3548607281      3.88e-05  
    7    -426.3557043158      2.83e-05  
    8    -426.3563988057      2.15e-05  
    9    -426.3573115856      1.56e-05  
   10    -426.3576735900      8.67e-06  
   11    -426.3577784251      5.42e-06  
   12    -426.3578040292      2.81e-06  
   13    -426.3578104215      1.53e-06  
   14    -426.3578120783      8.49e-07  
   15    -426.3578132477      6.15e-07  
   16    -426.3578139786      4.50e-07  
   17    -426.3578144429      2.99e-07  
   18    -426.3578146314      2.11e-07  
   19    -426.3578147010      1.20e-07  
   20    -426.3578147259      3.84e-08  
   21    -426.3578147281      1.17e-08  
   22    -426.3578147282      6.12e-09  Convergence criterion met
 ---------------------------------------
 SCF time:   CPU 3890.84s  wall 150.00s 
<S^2> =          0.752814297
(3)  G-ENP(liq) elect-nuc-pol free energy of system     -426.357814728 a.u.
(4)  G-CDS(liq) cavity-dispersion-solvent structure 
     free energy                                               -3.2316 kcal/mol
(6)  G-S(liq) free energy of system                     -426.362964589 a.u.
 SCF   energy in the final basis set =     -426.3578147282
 Total energy in the final basis set =     -426.3629645891
 
 --------------------------------------------------------------
 
                    Orbital Energies (a.u.)
 --------------------------------------------------------------
 
 Alpha MOs
 -- Occupied --
-19.3048 -19.2466 -19.1798 -19.1753 -10.4168 -10.3317 -10.3256  -2.0990
 -1.2438  -1.2133  -1.1457  -1.0958  -0.9081  -0.7766  -0.6992  -0.6878
 -0.6147  -0.6139  -0.5976  -0.5787  -0.5555  -0.5430  -0.4914  -0.4878
 -0.4667  -0.4253  -0.4070  -0.3833  -0.3770  -0.1640
 -- Virtual --
  0.0305   0.0465   0.0483   0.0502   0.0752   0.0768   0.0884   0.1012
  0.1142   0.1221   0.1257   0.1287   0.1344   0.1439   0.1452   0.1474
  0.1591   0.1658   0.1717   0.1724   0.1836   0.1917   0.1935   0.2138
  0.2258   0.2299   0.2339   0.2437   0.2551   0.2586   0.2709   0.2716
  0.2818   0.2897   0.2906   0.3118   0.3231   0.3258   0.3297   0.3355
  0.3484   0.3550   0.3605   0.3610   0.3645   0.3705   0.3774   0.3822
  0.3869   0.3946   0.3999   0.4057   0.4110   0.4124   0.4234   0.4264
  0.4271   0.4410   0.4420   0.4511   0.4668   0.4714   0.4733   0.4802
  0.4893   0.5095   0.5130   0.5143   0.5205   0.5271   0.5309   0.5406
  0.5545   0.5575   0.5645   0.5811   0.5927   0.5955   0.6076   0.6110
  0.6235   0.6248   0.6372   0.6430   0.6538   0.6570   0.6733   0.6823
  0.6925   0.6975   0.7026   0.7083   0.7168   0.7344   0.7530   0.7578
  0.7633   0.7719   0.7787   0.7812   0.7896   0.7957   0.8112   0.8219
  0.8327   0.8431   0.8502   0.8593   0.8739   0.8970   0.9043   0.9089
  0.9162   0.9240   0.9335   0.9744   0.9923   0.9944   1.0064   1.0170
  1.0197   1.0418   1.0481   1.0568   1.0754   1.0800   1.1007   1.1219
  1.1488   1.1640   1.1840   1.1863   1.2042   1.2077   1.2369   1.2568
  1.2621   1.2824   1.2944   1.2993   1.3113   1.3227   1.3381   1.3458
  1.3546   1.3804   1.3853   1.3925   1.4111   1.4503   1.4653   1.4779
  1.4805   1.4925   1.5202   1.5303   1.5731   1.6254   1.6272   1.6328
  1.6932   1.7241   1.7277   1.7579   1.7764   1.7934   1.8355   1.8602
  1.9024   1.9154   1.9220   1.9671   1.9799   1.9967   2.0263   2.0452
  2.0469   2.0498   2.0710   2.1441   2.1461   2.1563   2.1952   2.2409
  2.2571   2.2853   2.3154   2.3433   2.3603   2.4210   2.4389   2.4457
  2.4692   2.5140   2.5438   2.5842   2.6204   2.6936   2.7288   2.7920
  2.8347   2.8456   2.8755   2.9179   2.9521   2.9636   2.9770   2.9950
  2.9985   3.0227   3.0365   3.0668   3.1190   3.1504   3.1653   3.1804
  3.2205   3.2279   3.2596   3.2792   3.2978   3.3022   3.3093   3.3342
  3.3390   3.3620   3.3695   3.3832   3.3951   3.4153   3.4245   3.4598
  3.4608   3.4757   3.4850   3.4937   3.5130   3.5153   3.5602   3.5698
  3.5784   3.6121   3.6231   3.6284   3.6308   3.6392   3.6555   3.6818
  3.7262   3.7397   3.8219   3.8240   3.8564   3.9235   3.9437   3.9655
  3.9861   3.9889   4.0347   4.0548   4.0600   4.1357   4.1667   4.2007
  4.2086   4.2336   4.2552   4.2850   4.2930   4.3354   4.3581   4.3874
  4.4111   4.4166   4.4441   4.4539   4.4952   4.5409   4.5608   4.6602
  4.6723   4.7036   4.7237   4.7706   4.8052   4.8130   4.8479   4.9251
  4.9398   4.9802   5.0328   5.0599   5.0796   5.1801   5.2109   5.2348
  5.2624   5.2876   5.3105   5.3124   5.3223   5.3651   5.4108   5.4256
  5.4891   5.5239   5.5413   5.5856   5.6094   5.6444   5.6752   5.6834
  5.6955   5.7387   5.7932   5.8148   5.9350   5.9500   5.9751   6.0679
  6.0973   6.1233   6.1729   6.2516   6.2794   6.2890   6.3071   6.3411
  6.4016   6.4404   6.4843   6.5578   6.6071   6.6235   6.6581   6.6978
  6.7114   6.8138   6.8492   6.8516   6.8788   6.9063   6.9420   6.9899
  7.0674   7.0929   7.1439   7.2645   7.4009   7.4091   7.4416   7.4986
  7.5101   7.5746   7.6596   7.7019   7.8404  14.8055  23.4878  23.6597
 23.9147  44.1702  44.1886  44.3673  44.6722
 
 Beta MOs
 -- Occupied --
-19.2999 -19.2460 -19.1798 -19.1753 -10.4167 -10.3284 -10.3256  -2.0990
 -1.2431  -1.2021  -1.1447  -1.0957  -0.9023  -0.7710  -0.6915  -0.6854
 -0.6128  -0.6081  -0.5968  -0.5743  -0.5540  -0.5381  -0.4876  -0.4852
 -0.4652  -0.4245  -0.4064  -0.3833  -0.3768
 -- Virtual --
  0.0311   0.0469   0.0473   0.0504   0.0554   0.0860   0.1013   0.1045
  0.1184   0.1290   0.1314   0.1316   0.1378   0.1406   0.1464   0.1486
  0.1519   0.1664   0.1726   0.1733   0.1800   0.1910   0.1999   0.2045
  0.2206   0.2314   0.2388   0.2401   0.2527   0.2607   0.2638   0.2767
  0.2793   0.2886   0.2972   0.3001   0.3164   0.3270   0.3296   0.3340
  0.3386   0.3512   0.3628   0.3651   0.3700   0.3724   0.3750   0.3832
  0.3890   0.3934   0.4031   0.4058   0.4098   0.4132   0.4212   0.4251
  0.4290   0.4384   0.4440   0.4441   0.4552   0.4710   0.4733   0.4756
  0.4845   0.4908   0.5119   0.5153   0.5162   0.5241   0.5308   0.5333
  0.5424   0.5562   0.5602   0.5664   0.5854   0.5952   0.5960   0.6111
  0.6131   0.6253   0.6294   0.6391   0.6461   0.6560   0.6587   0.6747
  0.6875   0.6943   0.6984   0.7052   0.7102   0.7206   0.7365   0.7542
  0.7594   0.7647   0.7740   0.7809   0.7830   0.7929   0.7971   0.8134
  0.8249   0.8332   0.8437   0.8516   0.8603   0.8755   0.8994   0.9057
  0.9106   0.9172   0.9256   0.9347   0.9747   0.9948   0.9955   1.0099
  1.0175   1.0227   1.0432   1.0501   1.0584   1.0779   1.0829   1.1021
  1.1226   1.1498   1.1658   1.1851   1.1893   1.2048   1.2093   1.2380
  1.2584   1.2637   1.2852   1.2956   1.3004   1.3128   1.3231   1.3385
  1.3502   1.3555   1.3824   1.3869   1.3942   1.4119   1.4543   1.4658
  1.4800   1.4832   1.4995   1.5237   1.5314   1.5754   1.6270   1.6276
  1.6358   1.6953   1.7252   1.7294   1.7583   1.7776   1.7938   1.8367
  1.8605   1.9031   1.9156   1.9224   1.9699   1.9839   1.9984   2.0280
  2.0462   2.0482   2.0531   2.0725   2.1448   2.1468   2.1616   2.1981
  2.2424   2.2582   2.2863   2.3163   2.3437   2.3611   2.4215   2.4425
  2.4460   2.4694   2.5161   2.5477   2.5858   2.6209   2.6957   2.7291
  2.7954   2.8387   2.8494   2.8763   2.9222   2.9546   2.9641   2.9782
  2.9959   3.0008   3.0252   3.0381   3.0679   3.1206   3.1549   3.1692
  3.1835   3.2222   3.2310   3.2610   3.2814   3.3022   3.3034   3.3126
  3.3376   3.3399   3.3660   3.3725   3.3860   3.3966   3.4206   3.4296
  3.4644   3.4664   3.4783   3.4887   3.4973   3.5184   3.5218   3.5615
  3.5726   3.5796   3.6141   3.6259   3.6301   3.6342   3.6428   3.6574
  3.6843   3.7279   3.7413   3.8240   3.8260   3.8588   3.9274   3.9454
  3.9673   3.9892   3.9918   4.0364   4.0570   4.0611   4.1406   4.1715
  4.2025   4.2140   4.2389   4.2650   4.2925   4.2949   4.3387   4.3604
  4.3927   4.4134   4.4178   4.4489   4.4601   4.4988   4.5495   4.5629
  4.6620   4.6799   4.7053   4.7267   4.7741   4.8066   4.8140   4.8499
  4.9273   4.9439   4.9864   5.0351   5.0631   5.0822   5.1812   5.2125
  5.2367   5.2638   5.2884   5.3113   5.3154   5.3248   5.3698   5.4122
  5.4278   5.4902   5.5244   5.5422   5.5866   5.6098   5.6451   5.6758
  5.6844   5.6973   5.7398   5.7942   5.8166   5.9353   5.9536   5.9761
  6.0680   6.0978   6.1298   6.1738   6.2516   6.2797   6.2902   6.3072
  6.3413   6.4073   6.4420   6.4947   6.5580   6.6072   6.6267   6.6590
  6.6980   6.7114   6.8141   6.8507   6.8589   6.8843   6.9074   6.9420
  6.9901   7.0746   7.0942   7.1447   7.2647   7.4028   7.4113   7.4419
  7.5032   7.5112   7.5814   7.6602   7.7036   7.8455  14.8055  23.4914
 23.6601  23.9147  44.1729  44.1909  44.3675  44.6730
 --------------------------------------------------------------
 
          Ground-State Mulliken Net Atomic Charges

     Atom                 Charge (a.u.)    Spin (a.u.)
  --------------------------------------------------------
      1 H                     0.171872       0.155403
      2 C                    -0.328014       0.485879
      3 H                     0.017660       0.081605
      4 H                     0.025734       0.074498
      5 C                    -0.201732       0.294490
      6 H                     0.104056      -0.005409
      7 H                     0.115732      -0.010238
      8 O                    -0.086352      -0.094172
      9 C                     0.619316       0.073890
     10 O                    -0.775574      -0.013953
     11 O                    -0.780601      -0.001042
     12 Li                    0.874828       0.000225
     13 O                     0.110536      -0.206616
     14 H                     0.132539       0.165441
  --------------------------------------------------------
  Sum of atomic charges =    -0.000000
  Sum of spin   charges =     1.000000

  Building new vdw surfaces
         Merz-Kollman RESP Net Atomic Charges

     Atom                 Charge (a.u.)
  ----------------------------------------
      1 H                     0.047703
      2 C                     0.919007
      3 H                    -0.118496
      4 H                    -0.118496
      5 C                     0.234222
      6 H                     0.015939
      7 H                     0.015939
      8 O                    -0.737641
      9 C                     1.146863
     10 O                    -0.834857
     11 O                    -0.834857
     12 Li                    0.810133
     13 O                    -0.593162
     14 H                     0.047703
  ----------------------------------------
  Sum of atomic charges =     0.000000

  Related Dipole Moment =     5.2723 (X  2.0137 Y -4.1885 Z -2.4896)

 -----------------------------------------------------------------
                    Cartesian Multipole Moments
 -----------------------------------------------------------------
    Charge (ESU x 10^10)
                -0.0000
    Dipole Moment (Debye)
         X       3.3553      Y      -4.4020      Z      -3.2484
       Tot       6.4178
    Quadrupole Moments (Debye-Ang)
        XX     -40.2657     XY     -28.2071     YY     -19.0901
        XZ     -16.1384     YZ      15.0281     ZZ     -35.5599
    Octopole Moments (Debye-Ang^2)
       XXX    -416.8792    XXY    -118.0770    XYY      38.7340
       YYY      23.7074    XXZ     -72.7012    XYZ     102.7106
       YYZ     -54.0955    XZZ     -74.8478    YZZ       5.5332
       ZZZ      53.0253
    Hexadecapole Moments (Debye-Ang^3)
      XXXX   -3681.5598   XXXY    -205.7255   XXYY     309.7685
      XYYY    -106.5715   YYYY    -282.6438   XXXZ    -138.9364
      XXYZ     528.4561   XYYZ    -361.4763   YYYZ     132.4825
      XXZZ    -277.9708   XYZZ     -45.9287   YYZZ       6.8887
      XZZZ     241.1367   YZZZ    -105.0238   ZZZZ    -275.6610
 -----------------------------------------------------------------
 Calculating analytic gradient of the SCF energy
 Gradient of CDS energy
            1           2           3           4           5           6
    1  -0.0000959   0.0003270  -0.0001441  -0.0001731  -0.0000797   0.0000818
    2   0.0000829   0.0009607  -0.0002012  -0.0001357  -0.0004189   0.0000199
    3   0.0000374   0.0005397  -0.0000459  -0.0001397  -0.0002194  -0.0001629
            7           8           9          10          11          12
    1   0.0000688  -0.0007318   0.0003137  -0.0000080   0.0001825   0.0000151
    2  -0.0001231   0.0005518   0.0000380  -0.0000955  -0.0003784  -0.0000255
    3   0.0000968   0.0003325   0.0000244  -0.0000667  -0.0002317  -0.0000133
           13          14
    1   0.0003456  -0.0001021
    2  -0.0003503   0.0000754
    3  -0.0001980   0.0000469
 Gradient of SCF Energy
            1           2           3           4           5           6
    1   0.0008144  -0.0104373   0.0034216   0.0028987   0.0062513  -0.0010244
    2  -0.0005405  -0.0045534   0.0053984   0.0004888   0.0012361  -0.0028486
    3  -0.0000164  -0.0012618  -0.0023960   0.0054524   0.0014706   0.0031103
            7           8           9          10          11          12
    1  -0.0017606   0.0009052  -0.0004156  -0.0021394  -0.0008611   0.0022117
    2   0.0012855  -0.0002236  -0.0015981   0.0028736   0.0051098  -0.0061941
    3  -0.0043469  -0.0003158  -0.0011537   0.0019947   0.0031360  -0.0038723
           13          14
    1   0.0005779  -0.0004426
    2  -0.0005955   0.0001616
    3   0.0006437  -0.0024448
 Max gradient component =       1.044E-02
 RMS gradient           =       3.187E-03
 Computing fast CPCM-SWIG gradient
 Updating gradient with PCM contributions...
 -- total gradient after adding PCM contribution --
---------------------------------------------------
  Atom         X              Y              Z     
---------------------------------------------------
   1      -0.000029      -0.000031       0.000053
   2      -0.000018       0.000016      -0.000004
   3      -0.000002      -0.000001      -0.000008
   4       0.000011       0.000008      -0.000005
   5      -0.000003      -0.000010      -0.000006
   6       0.000007       0.000002       0.000008
   7      -0.000006      -0.000007       0.000006
   8      -0.000002       0.000010      -0.000007
   9      -0.000001       0.000000      -0.000006
  10      -0.000002      -0.000002       0.000004
  11      -0.000002       0.000006      -0.000013
  12      -0.000003      -0.000001      -0.000003
  13       0.000008       0.000023      -0.000091
  14       0.000041      -0.000013       0.000072
---------------------------------------------------
 Number of fixed atoms: 0
 Gradient time:  CPU 515.84 s  wall 21.90 s
 ######################################################
 ######################################################
 # Starting finite difference calculation for IDERIV  #
 Finite diff step size:  1.88973e-03 a.u.
 ----------------------------------------------------------------
             Standard Nuclear Orientation (Angstroms)
    I     Atom           X                Y                Z
 ----------------------------------------------------------------
    1      H       0.1509349052    -0.1708910144     0.9773770374
    2      C       2.3013334408     0.2670142501     0.2404618931
    3      H       2.6081297837     1.1597929842    -0.2959120888
    4      H       2.6286840180     0.2718644717     1.2757999350
    5      C       2.5623153930    -1.0220236657    -0.4927923903
    6      H       2.1753648775    -1.8831135842     0.0549938154
    7      H       2.1278552513    -1.0114454233    -1.4940054146
    8      O       3.9985893263    -1.1135003006    -0.5899392340
    9      C       4.4891497945    -2.1924562709    -1.2361656836
   10      O       3.7045947293    -3.0559646582    -1.7129610394
   11      O       5.7419312510    -2.2675603221    -1.3236734666
   12      Li      5.3422683007    -3.8736672643    -2.2546326084
   13      O       0.6730853592     0.4957803135     0.3961388477
   14      H       0.1640335697     0.5631204845    -0.4723896028
 ----------------------------------------------------------------
 Nuclear Repulsion Energy =         335.27916665 hartrees
 There are       30 alpha and       29 beta electrons
 Discretize the solute cavity surface with Lebedev spheres
	Using 110 Lebedev grid points for each H atom
	Using 194 Lebedev grid points for other atoms
	Atomic van der Waals radii will be scaled by 1.20
 Remove points where switching function is < 1.0e-08
 Keep 930 surface tesserae and discard 1282 interior tesserae
 Molecular Surface Area = 188.817 Angst**2

                       Distance Matrix (Angstroms)
             H (  1)   C (  2)   H (  3)   H (  4)   C (  5)   H (  6)
   C (  2)  2.314955
   H (  3)  3.070797  1.085760
   H (  4)  2.534626  1.085867  1.805303
   C (  5)  2.949675  1.505786  2.191161  2.192366
   H (  6)  2.807279  2.161785  3.093493  2.517895  1.091456
   H (  7)  3.274519  2.161696  2.525939  3.093467  1.091465  1.778050
   O (  8)  4.260216  2.340099  2.680987  2.697565  1.442459  2.081440
   C (  9)  5.273197  3.607764  3.957258  3.980475  2.373859  2.667656
   O ( 10)  5.309432  4.102096  4.580707  4.600513  2.632590  2.615299
   O ( 11)  6.399226  4.550637  4.756444  4.785211  3.514496  3.843035
   Li( 12)  7.148873  5.711219  6.053744  6.083825  4.354778  4.396130
   O ( 13)  1.027098  1.651593  2.159686  2.155994  2.581302  2.834142
   H ( 14)  1.625044  2.272419  2.522056  3.035704  2.874866  3.210553
             H (  7)   O (  8)   C (  9)   O ( 10)   O ( 11)   Li( 12)
   O (  8)  2.080240
   C (  9)  2.652731  1.349965
   O ( 10)  2.591160  2.262914  1.260360
   O ( 11)  3.829932  2.215730  1.258078  2.218979
   Li( 12)  4.370734  3.492162  2.142792  1.908932  1.898946
   O ( 13)  2.821477  3.823756  4.945036  5.123792  6.023870  6.922422
   H ( 14)  2.716533  4.186728  5.184900  5.212712  6.312716  7.048091
             O ( 13)
   H ( 14)  1.008965
 
 Requested basis set is def2-TZVPPD
 There are 147 shells and 395 basis functions
 A cutoff of  1.0D-14 yielded   9941 shell pairs
 There are     71999 function pairs (     90644 Cartesian)
 Smallest overlap matrix eigenvalue = 6.53E-06
 Guess MOs from SCF MO coefficient file

 -----------------------------------------------------------------------
  General SCF calculation program by
  Eric Jon Sundstrom, Paul Horn, Yuezhi Mao, Dmitri Zuev, Alec White,
  David Stuck, Shaama M.S., Shane Yost, Joonho Lee, David Small,
  Daniel Levine, Susi Lehtola, Hugh Burton, Evgeny Epifanovsky,
  Bang C. Huynh
 -----------------------------------------------------------------------
 Exchange:     0.1670 Hartree-Fock + 1.0000 wB97X-V + LR-HF
 Correlation:  1.0000 wB97X-V
 Using SG-3 standard quadrature grid
 Nonlocal Correlation:  VV10 with C = 0.0100 and b = 6.00 and scale = 1.00000
 Grid used for NLC:  SG-1 standard quadrature
 
 Citation of the SMD model:
 Marenich, A.V.; Cramer, C.J.; Truhlar, D.G.
 J. Phys. Chem. B 2009, 113, 6378-6396.
 iSolventCode=           0
 Solvent: other                                                           
 
 vradii
            1           2           3           4           5           6
    1   1.2000000   1.8500000   1.2000000   1.2000000   1.8500000   1.2000000
            7           8           9          10          11          12
    1   1.2000000   2.2940000   1.8500000   2.2940000   2.2940000   2.1476001
           13          14
    1   2.2940000   1.2000000
 using 32 threads for integral computing
 -------------------------------------------------------
 OpenMP Integral computing Module                
 Release: version 1.0, May 2013, Q-Chem Inc. Pittsburgh 
 -------------------------------------------------------
 using 32 threads for integral computing
 -------------------------------------------------------
 OpenMP Integral computing Module                
 Release: version 1.0, May 2013, Q-Chem Inc. Pittsburgh 
 -------------------------------------------------------
 -------------------------------------------------------
 OpenMP BLAS3 based DFT computing Module                
 Release: version 1.0, May 2013, Q-Chem Inc. Pittsburgh 
 -------------------------------------------------------
 -------------------------------------------------------
 OpenMP BLAS3 based DFT computing Module                
 Release: version 1.0, May 2013, Q-Chem Inc. Pittsburgh 
 -------------------------------------------------------
 -------------------------------------------------------
 OpenMP BLAS3 based DFT computing Module                
 Release: version 1.0, May 2013, Q-Chem Inc. Pittsburgh 
 -------------------------------------------------------
 A unrestricted SCF calculation will be
 performed using Roothaan-Hall, DIIS
 SCF converges when DIIS error is below 1.0e-08
 ---------------------------------------
  Cycle       Energy         DIIS error
 ---------------------------------------
    1    -426.6572810832      8.97e-05  Roothaan Step
 ---------------------------------------
  Cycle       Energy         DIIS error
 ---------------------------------------
    1    -426.3566537800      9.64e-05  
    2    -426.3575173551      6.53e-05  
    3    -426.3577460138      2.48e-05  
    4    -426.3577909588      7.89e-06  
    5    -426.3578029925      4.09e-06  
    6    -426.3578077347      1.97e-06  
    7    -426.3578111757      1.36e-06  
    8    -426.3578128301      1.01e-06  
    9    -426.3578138220      5.09e-07  
   10    -426.3578140829      4.21e-07  
   11    -426.3578142944      2.91e-07  
   12    -426.3578144662      1.40e-07  
   13    -426.3578145046      7.23e-08  
   14    -426.3578145125      5.39e-08  
   15    -426.3578145158      4.14e-08  
   16    -426.3578145189      2.67e-08  
   17    -426.3578145208      1.25e-08  
   18    -426.3578145211      4.89e-09  Convergence criterion met
 ---------------------------------------
 SCF time:   CPU 3391.90s  wall 130.00s 
<S^2> =          0.752811655
(3)  G-ENP(liq) elect-nuc-pol free energy of system     -426.357814521 a.u.
(4)  G-CDS(liq) cavity-dispersion-solvent structure 
     free energy                                               -3.2317 kcal/mol
(6)  G-S(liq) free energy of system                     -426.362964563 a.u.
 SCF   energy in the final basis set =     -426.3578145211
 Total energy in the final basis set =     -426.3629645634
 
 --------------------------------------------------------------
 
                    Orbital Energies (a.u.)
 --------------------------------------------------------------
 
 Alpha MOs
 -- Occupied --
-19.3048 -19.2466 -19.1798 -19.1753 -10.4168 -10.3317 -10.3256  -2.0990
 -1.2438  -1.2134  -1.1456  -1.0958  -0.9081  -0.7766  -0.6994  -0.6878
 -0.6147  -0.6139  -0.5976  -0.5787  -0.5555  -0.5430  -0.4914  -0.4878
 -0.4666  -0.4253  -0.4070  -0.3833  -0.3770  -0.1639
 -- Virtual --
  0.0305   0.0465   0.0483   0.0502   0.0752   0.0768   0.0884   0.1012
  0.1142   0.1221   0.1257   0.1287   0.1345   0.1439   0.1452   0.1474
  0.1591   0.1658   0.1717   0.1724   0.1836   0.1917   0.1935   0.2138
  0.2258   0.2300   0.2339   0.2437   0.2551   0.2586   0.2709   0.2716
  0.2818   0.2897   0.2906   0.3118   0.3231   0.3258   0.3298   0.3355
  0.3485   0.3550   0.3606   0.3611   0.3645   0.3705   0.3774   0.3822
  0.3869   0.3946   0.4000   0.4057   0.4111   0.4124   0.4234   0.4264
  0.4271   0.4410   0.4420   0.4511   0.4668   0.4714   0.4733   0.4802
  0.4893   0.5095   0.5130   0.5143   0.5205   0.5271   0.5309   0.5406
  0.5546   0.5575   0.5645   0.5811   0.5927   0.5955   0.6076   0.6110
  0.6235   0.6248   0.6372   0.6430   0.6538   0.6570   0.6733   0.6824
  0.6925   0.6975   0.7026   0.7083   0.7168   0.7344   0.7530   0.7578
  0.7633   0.7719   0.7787   0.7812   0.7896   0.7957   0.8112   0.8219
  0.8327   0.8431   0.8501   0.8593   0.8739   0.8971   0.9044   0.9089
  0.9162   0.9240   0.9334   0.9744   0.9923   0.9944   1.0064   1.0170
  1.0196   1.0418   1.0480   1.0568   1.0754   1.0800   1.1007   1.1219
  1.1488   1.1640   1.1840   1.1863   1.2042   1.2077   1.2369   1.2568
  1.2621   1.2825   1.2945   1.2993   1.3113   1.3227   1.3381   1.3459
  1.3545   1.3803   1.3853   1.3925   1.4112   1.4503   1.4654   1.4780
  1.4806   1.4927   1.5202   1.5303   1.5731   1.6254   1.6272   1.6329
  1.6932   1.7241   1.7277   1.7579   1.7764   1.7934   1.8356   1.8602
  1.9024   1.9154   1.9221   1.9671   1.9800   1.9967   2.0263   2.0452
  2.0469   2.0499   2.0711   2.1441   2.1461   2.1565   2.1953   2.2409
  2.2571   2.2853   2.3155   2.3433   2.3603   2.4210   2.4387   2.4457
  2.4692   2.5140   2.5438   2.5841   2.6204   2.6935   2.7288   2.7921
  2.8347   2.8456   2.8755   2.9179   2.9521   2.9636   2.9769   2.9950
  2.9985   3.0227   3.0365   3.0668   3.1190   3.1503   3.1652   3.1803
  3.2204   3.2278   3.2596   3.2792   3.2977   3.3022   3.3093   3.3342
  3.3390   3.3620   3.3694   3.3833   3.3951   3.4155   3.4246   3.4601
  3.4607   3.4758   3.4850   3.4937   3.5131   3.5155   3.5602   3.5699
  3.5784   3.6121   3.6231   3.6284   3.6308   3.6392   3.6555   3.6819
  3.7262   3.7397   3.8220   3.8241   3.8565   3.9236   3.9437   3.9655
  3.9862   3.9889   4.0346   4.0547   4.0601   4.1358   4.1668   4.2007
  4.2089   4.2336   4.2553   4.2853   4.2930   4.3355   4.3582   4.3877
  4.4112   4.4166   4.4442   4.4541   4.4952   4.5411   4.5608   4.6603
  4.6725   4.7036   4.7238   4.7708   4.8052   4.8131   4.8480   4.9252
  4.9400   4.9805   5.0329   5.0601   5.0796   5.1801   5.2109   5.2348
  5.2625   5.2876   5.3106   5.3125   5.3224   5.3652   5.4108   5.4256
  5.4891   5.5239   5.5414   5.5856   5.6094   5.6444   5.6752   5.6834
  5.6955   5.7388   5.7932   5.8148   5.9350   5.9500   5.9751   6.0679
  6.0973   6.1235   6.1729   6.2516   6.2794   6.2890   6.3071   6.3411
  6.4026   6.4406   6.4849   6.5578   6.6071   6.6247   6.6582   6.6979
  6.7114   6.8138   6.8492   6.8518   6.8787   6.9063   6.9420   6.9899
  7.0674   7.0929   7.1439   7.2645   7.4009   7.4091   7.4416   7.4981
  7.5101   7.5750   7.6596   7.7019   7.8411  14.8055  23.4879  23.6597
 23.9147  44.1703  44.1886  44.3674  44.6722
 
 Beta MOs
 -- Occupied --
-19.2999 -19.2459 -19.1798 -19.1753 -10.4167 -10.3284 -10.3256  -2.0990
 -1.2430  -1.2022  -1.1447  -1.0957  -0.9023  -0.7710  -0.6917  -0.6854
 -0.6129  -0.6081  -0.5968  -0.5743  -0.5540  -0.5381  -0.4876  -0.4852
 -0.4652  -0.4245  -0.4064  -0.3833  -0.3768
 -- Virtual --
  0.0311   0.0469   0.0473   0.0504   0.0554   0.0860   0.1013   0.1045
  0.1184   0.1290   0.1314   0.1316   0.1378   0.1406   0.1464   0.1486
  0.1519   0.1664   0.1726   0.1733   0.1800   0.1910   0.1999   0.2045
  0.2206   0.2314   0.2388   0.2401   0.2527   0.2607   0.2638   0.2767
  0.2793   0.2886   0.2972   0.3001   0.3164   0.3270   0.3296   0.3340
  0.3386   0.3512   0.3628   0.3651   0.3700   0.3724   0.3750   0.3832
  0.3890   0.3934   0.4031   0.4058   0.4098   0.4132   0.4212   0.4251
  0.4290   0.4384   0.4440   0.4441   0.4552   0.4710   0.4733   0.4756
  0.4845   0.4908   0.5119   0.5153   0.5162   0.5241   0.5308   0.5333
  0.5424   0.5562   0.5603   0.5664   0.5854   0.5952   0.5960   0.6111
  0.6131   0.6253   0.6294   0.6391   0.6461   0.6560   0.6587   0.6747
  0.6876   0.6943   0.6984   0.7052   0.7102   0.7206   0.7365   0.7542
  0.7595   0.7647   0.7740   0.7809   0.7830   0.7929   0.7971   0.8134
  0.8249   0.8332   0.8437   0.8516   0.8604   0.8755   0.8994   0.9057
  0.9106   0.9172   0.9256   0.9347   0.9747   0.9948   0.9955   1.0099
  1.0175   1.0227   1.0432   1.0500   1.0584   1.0779   1.0830   1.1021
  1.1226   1.1498   1.1659   1.1850   1.1892   1.2048   1.2093   1.2380
  1.2584   1.2637   1.2852   1.2957   1.3004   1.3128   1.3232   1.3385
  1.3502   1.3555   1.3824   1.3869   1.3942   1.4119   1.4542   1.4658
  1.4800   1.4833   1.4996   1.5237   1.5314   1.5755   1.6269   1.6276
  1.6358   1.6953   1.7252   1.7293   1.7583   1.7776   1.7938   1.8367
  1.8605   1.9031   1.9156   1.9224   1.9699   1.9839   1.9984   2.0280
  2.0462   2.0483   2.0532   2.0725   2.1448   2.1468   2.1618   2.1982
  2.2425   2.2583   2.2863   2.3163   2.3437   2.3611   2.4216   2.4423
  2.4460   2.4694   2.5161   2.5477   2.5858   2.6210   2.6956   2.7291
  2.7954   2.8386   2.8494   2.8763   2.9222   2.9546   2.9641   2.9782
  2.9959   3.0008   3.0252   3.0381   3.0679   3.1206   3.1548   3.1692
  3.1834   3.2221   3.2309   3.2610   3.2814   3.3022   3.3034   3.3126
  3.3376   3.3399   3.3660   3.3724   3.3861   3.3966   3.4208   3.4297
  3.4644   3.4666   3.4784   3.4888   3.4972   3.5185   3.5219   3.5616
  3.5727   3.5797   3.6141   3.6259   3.6301   3.6342   3.6429   3.6574
  3.6844   3.7279   3.7413   3.8240   3.8260   3.8589   3.9274   3.9454
  3.9673   3.9893   3.9919   4.0364   4.0570   4.0611   4.1407   4.1716
  4.2025   4.2143   4.2389   4.2651   4.2928   4.2949   4.3388   4.3604
  4.3930   4.4135   4.4178   4.4490   4.4604   4.4988   4.5496   4.5629
  4.6621   4.6800   4.7054   4.7267   4.7743   4.8066   4.8140   4.8499
  4.9274   4.9441   4.9867   5.0351   5.0633   5.0822   5.1812   5.2126
  5.2367   5.2638   5.2884   5.3114   5.3155   5.3248   5.3699   5.4122
  5.4278   5.4902   5.5244   5.5423   5.5866   5.6098   5.6451   5.6758
  5.6844   5.6974   5.7398   5.7943   5.8166   5.9353   5.9536   5.9761
  6.0680   6.0978   6.1299   6.1738   6.2516   6.2797   6.2903   6.3072
  6.3413   6.4082   6.4421   6.4954   6.5580   6.6072   6.6279   6.6591
  6.6980   6.7114   6.8141   6.8507   6.8591   6.8842   6.9074   6.9420
  6.9901   7.0745   7.0943   7.1447   7.2647   7.4028   7.4113   7.4419
  7.5027   7.5112   7.5817   7.6602   7.7036   7.8462  14.8055  23.4916
 23.6601  23.9147  44.1730  44.1910  44.3675  44.6730
 --------------------------------------------------------------
 
          Ground-State Mulliken Net Atomic Charges

     Atom                 Charge (a.u.)    Spin (a.u.)
  --------------------------------------------------------
      1 H                     0.171653       0.155108
      2 C                    -0.328568       0.486272
      3 H                     0.017591       0.081651
      4 H                     0.025738       0.074592
      5 C                    -0.202143       0.294921
      6 H                     0.104063      -0.005355
      7 H                     0.115733      -0.010263
      8 O                    -0.086178      -0.094329
      9 C                     0.619172       0.074040
     10 O                    -0.775554      -0.013979
     11 O                    -0.780600      -0.001047
     12 Li                    0.874829       0.000224
     13 O                     0.111589      -0.207311
     14 H                     0.132676       0.165478
  --------------------------------------------------------
  Sum of atomic charges =     0.000000
  Sum of spin   charges =     1.000000

  Building new vdw surfaces
         Merz-Kollman RESP Net Atomic Charges

     Atom                 Charge (a.u.)
  ----------------------------------------
      1 H                     0.048144
      2 C                     0.919101
      3 H                    -0.118404
      4 H                    -0.118404
      5 C                     0.233540
      6 H                     0.016083
      7 H                     0.016083
      8 O                    -0.737705
      9 C                     1.147156
     10 O                    -0.834919
     11 O                    -0.834919
     12 Li                    0.810096
     13 O                    -0.593994
     14 H                     0.048144
  ----------------------------------------
  Sum of atomic charges =     0.000000

  Related Dipole Moment =     5.2707 (X  2.0111 Y -4.1881 Z -2.4892)

 -----------------------------------------------------------------
                    Cartesian Multipole Moments
 -----------------------------------------------------------------
    Charge (ESU x 10^10)
                 0.0000
    Dipole Moment (Debye)
         X       3.3535      Y      -4.4074      Z      -3.2381
       Tot       6.4153
    Quadrupole Moments (Debye-Ang)
        XX     -40.2732     XY     -28.2048     YY     -19.0938
        XZ     -16.1407     YZ      15.0266     ZZ     -35.5565
    Octopole Moments (Debye-Ang^2)
       XXX    -416.9120    XXY    -118.0779    XYY      38.7275
       YYY      23.6899    XXZ     -72.6908    XYZ     102.7089
       YYZ     -54.0821    XZZ     -74.8544    YZZ       5.5228
       ZZZ      53.0677
    Hexadecapole Moments (Debye-Ang^3)
      XXXX   -3681.6974   XXXY    -205.6895   XXYY     309.7383
      XYYY    -106.5538   YYYY    -282.6873   XXXZ    -138.9375
      XXYZ     528.4462   XYYZ    -361.4736   YYYZ     132.4761
      XXZZ    -277.9809   XYZZ     -45.9247   YYZZ       6.8836
      XZZZ     241.1283   YZZZ    -105.0298   ZZZZ    -275.6368
 -----------------------------------------------------------------
 Calculating analytic gradient of the SCF energy
 Gradient of CDS energy
            1           2           3           4           5           6
    1  -0.0000961   0.0003272  -0.0001441  -0.0001733  -0.0000796   0.0000817
    2   0.0000829   0.0009608  -0.0002012  -0.0001358  -0.0004189   0.0000199
    3   0.0000374   0.0005394  -0.0000459  -0.0001396  -0.0002194  -0.0001629
            7           8           9          10          11          12
    1   0.0000688  -0.0007318   0.0003137  -0.0000080   0.0001825   0.0000151
    2  -0.0001231   0.0005518   0.0000380  -0.0000955  -0.0003784  -0.0000255
    3   0.0000968   0.0003325   0.0000244  -0.0000667  -0.0002317  -0.0000133
           13          14
    1   0.0003459  -0.0001022
    2  -0.0003503   0.0000753
    3  -0.0001979   0.0000469
 Gradient of SCF Energy
            1           2           3           4           5           6
    1   0.0008840  -0.0105095   0.0034249   0.0029016   0.0062645  -0.0010280
    2  -0.0004836  -0.0045255   0.0053926   0.0004916   0.0012367  -0.0028501
    3  -0.0000333  -0.0012855  -0.0023939   0.0054561   0.0014511   0.0031138
            7           8           9          10          11          12
    1  -0.0017579   0.0008904  -0.0004154  -0.0021393  -0.0008639   0.0022121
    2   0.0012862  -0.0002187  -0.0016022   0.0028777   0.0051121  -0.0061956
    3  -0.0043422  -0.0003108  -0.0011526   0.0019937   0.0031358  -0.0038715
           13          14
    1   0.0004811  -0.0003446
    2  -0.0006897   0.0001686
    3   0.0006053  -0.0023660
 Max gradient component =       1.051E-02
 RMS gradient           =       3.191E-03
 Computing fast CPCM-SWIG gradient
 Updating gradient with PCM contributions...
 -- total gradient after adding PCM contribution --
---------------------------------------------------
  Atom         X              Y              Z     
---------------------------------------------------
   1       0.000056       0.000047       0.000011
   2      -0.000089       0.000030      -0.000009
   3       0.000004      -0.000002      -0.000007
   4       0.000007       0.000008      -0.000005
   5       0.000004      -0.000019      -0.000006
   6       0.000007       0.000004       0.000009
   7      -0.000008      -0.000006       0.000004
   8      -0.000012       0.000016      -0.000005
   9       0.000000      -0.000004      -0.000009
  10      -0.000002      -0.000000       0.000005
  11      -0.000005       0.000007      -0.000012
  12      -0.000003      -0.000002      -0.000003
  13      -0.000089      -0.000078      -0.000107
  14       0.000128      -0.000003       0.000133
---------------------------------------------------
 Number of fixed atoms: 0
 Gradient time:  CPU 517.04 s  wall 21.81 s
 ----------------------------------------------------------------
             Standard Nuclear Orientation (Angstroms)
    I     Atom           X                Y                Z
 ----------------------------------------------------------------
    1      H       0.1489349052    -0.1708910144     0.9773770374
    2      C       2.3013334408     0.2670142501     0.2404618931
    3      H       2.6081297837     1.1597929842    -0.2959120888
    4      H       2.6286840180     0.2718644717     1.2757999350
    5      C       2.5623153930    -1.0220236657    -0.4927923903
    6      H       2.1753648775    -1.8831135842     0.0549938154
    7      H       2.1278552513    -1.0114454233    -1.4940054146
    8      O       3.9985893263    -1.1135003006    -0.5899392340
    9      C       4.4891497945    -2.1924562709    -1.2361656836
   10      O       3.7045947293    -3.0559646582    -1.7129610394
   11      O       5.7419312510    -2.2675603221    -1.3236734666
   12      Li      5.3422683007    -3.8736672643    -2.2546326084
   13      O       0.6730853592     0.4957803135     0.3961388477
   14      H       0.1640335697     0.5631204845    -0.4723896028
 ----------------------------------------------------------------
 Nuclear Repulsion Energy =         335.27194210 hartrees
 There are       30 alpha and       29 beta electrons
 Discretize the solute cavity surface with Lebedev spheres
	Using 110 Lebedev grid points for each H atom
	Using 194 Lebedev grid points for other atoms
	Atomic van der Waals radii will be scaled by 1.20
 Remove points where switching function is < 1.0e-08
 Keep 930 surface tesserae and discard 1282 interior tesserae
 Molecular Surface Area = 188.818 Angst**2

                       Distance Matrix (Angstroms)
             H (  1)   C (  2)   H (  3)   H (  4)   C (  5)   H (  6)
   C (  2)  2.316813
   H (  3)  3.072397  1.085760
   H (  4)  2.536581  1.085867  1.805303
   C (  5)  2.951310  1.505786  2.191161  2.192366
   H (  6)  2.808721  2.161785  3.093493  2.517895  1.091456
   H (  7)  3.275727  2.161696  2.525939  3.093467  1.091465  1.778050
   O (  8)  4.262022  2.340099  2.680987  2.697565  1.442459  2.081440
   C (  9)  5.274842  3.607764  3.957258  3.980475  2.373859  2.667656
   O ( 10)  5.310771  4.102096  4.580707  4.600513  2.632590  2.615299
   O ( 11)  6.400974  4.550637  4.756444  4.785211  3.514496  3.843035
   Li( 12)  7.150325  5.711219  6.053744  6.083825  4.354778  4.396130
   O ( 13)  1.028116  1.651593  2.159686  2.155994  2.581302  2.834142
   H ( 14)  1.625061  2.272419  2.522056  3.035704  2.874866  3.210553
             H (  7)   O (  8)   C (  9)   O ( 10)   O ( 11)   Li( 12)
   O (  8)  2.080240
   C (  9)  2.652731  1.349965
   O ( 10)  2.591160  2.262914  1.260360
   O ( 11)  3.829932  2.215730  1.258078  2.218979
   Li( 12)  4.370734  3.492162  2.142792  1.908932  1.898946
   O ( 13)  2.821477  3.823756  4.945036  5.123792  6.023870  6.922422
   H ( 14)  2.716533  4.186728  5.184900  5.212712  6.312716  7.048091
             O ( 13)
   H ( 14)  1.008965
 
 Requested basis set is def2-TZVPPD
 There are 147 shells and 395 basis functions
 A cutoff of  1.0D-14 yielded   9941 shell pairs
 There are     71999 function pairs (     90644 Cartesian)
 Smallest overlap matrix eigenvalue = 6.53E-06
 Guess MOs from SCF MO coefficient file

 -----------------------------------------------------------------------
  General SCF calculation program by
  Eric Jon Sundstrom, Paul Horn, Yuezhi Mao, Dmitri Zuev, Alec White,
  David Stuck, Shaama M.S., Shane Yost, Joonho Lee, David Small,
  Daniel Levine, Susi Lehtola, Hugh Burton, Evgeny Epifanovsky,
  Bang C. Huynh
 -----------------------------------------------------------------------
 Exchange:     0.1670 Hartree-Fock + 1.0000 wB97X-V + LR-HF
 Correlation:  1.0000 wB97X-V
 Using SG-3 standard quadrature grid
 Nonlocal Correlation:  VV10 with C = 0.0100 and b = 6.00 and scale = 1.00000
 Grid used for NLC:  SG-1 standard quadrature
 
 Citation of the SMD model:
 Marenich, A.V.; Cramer, C.J.; Truhlar, D.G.
 J. Phys. Chem. B 2009, 113, 6378-6396.
 iSolventCode=           0
 Solvent: other                                                           
 
 vradii
            1           2           3           4           5           6
    1   1.2000000   1.8500000   1.2000000   1.2000000   1.8500000   1.2000000
            7           8           9          10          11          12
    1   1.2000000   2.2940000   1.8500000   2.2940000   2.2940000   2.1476001
           13          14
    1   2.2940000   1.2000000
 using 32 threads for integral computing
 -------------------------------------------------------
 OpenMP Integral computing Module                
 Release: version 1.0, May 2013, Q-Chem Inc. Pittsburgh 
 -------------------------------------------------------
 using 32 threads for integral computing
 -------------------------------------------------------
 OpenMP Integral computing Module                
 Release: version 1.0, May 2013, Q-Chem Inc. Pittsburgh 
 -------------------------------------------------------
 -------------------------------------------------------
 OpenMP BLAS3 based DFT computing Module                
 Release: version 1.0, May 2013, Q-Chem Inc. Pittsburgh 
 -------------------------------------------------------
 -------------------------------------------------------
 OpenMP BLAS3 based DFT computing Module                
 Release: version 1.0, May 2013, Q-Chem Inc. Pittsburgh 
 -------------------------------------------------------
 -------------------------------------------------------
 OpenMP BLAS3 based DFT computing Module                
 Release: version 1.0, May 2013, Q-Chem Inc. Pittsburgh 
 -------------------------------------------------------
 A unrestricted SCF calculation will be
 performed using Roothaan-Hall, DIIS
 SCF converges when DIIS error is below 1.0e-08
 ---------------------------------------
  Cycle       Energy         DIIS error
 ---------------------------------------
    1    -426.6571907855      8.98e-05  Roothaan Step
 ---------------------------------------
  Cycle       Energy         DIIS error
 ---------------------------------------
    1    -426.3566519416      9.64e-05  
    2    -426.3575152096      6.53e-05  
    3    -426.3577443549      2.48e-05  
    4    -426.3577895698      7.90e-06  
    5    -426.3578019603      4.14e-06  
    6    -426.3578069655      2.04e-06  
    7    -426.3578107246      1.42e-06  
    8    -426.3578126257      1.07e-06  
    9    -426.3578138292      5.63e-07  
   10    -426.3578141812      4.68e-07  
   11    -426.3578144765      3.21e-07  
   12    -426.3578147110      1.52e-07  
   13    -426.3578147551      7.81e-08  
   14    -426.3578147641      6.04e-08  
   15    -426.3578147680      4.59e-08  
   16    -426.3578147716      2.79e-08  
   17    -426.3578147736      1.21e-08  
   18    -426.3578147738      4.68e-09  Convergence criterion met
 ---------------------------------------
 SCF time:   CPU 3396.85s  wall 131.00s 
<S^2> =          0.752816749
(3)  G-ENP(liq) elect-nuc-pol free energy of system     -426.357814774 a.u.
(4)  G-CDS(liq) cavity-dispersion-solvent structure 
     free energy                                               -3.2315 kcal/mol
(6)  G-S(liq) free energy of system                     -426.362964454 a.u.
 SCF   energy in the final basis set =     -426.3578147738
 Total energy in the final basis set =     -426.3629644535
 
 --------------------------------------------------------------
 
                    Orbital Energies (a.u.)
 --------------------------------------------------------------
 
 Alpha MOs
 -- Occupied --
-19.3047 -19.2466 -19.1798 -19.1753 -10.4168 -10.3318 -10.3256  -2.0990
 -1.2438  -1.2131  -1.1457  -1.0958  -0.9081  -0.7766  -0.6990  -0.6878
 -0.6147  -0.6139  -0.5976  -0.5787  -0.5555  -0.5430  -0.4913  -0.4878
 -0.4667  -0.4254  -0.4070  -0.3834  -0.3770  -0.1641
 -- Virtual --
  0.0305   0.0465   0.0483   0.0502   0.0752   0.0768   0.0884   0.1012
  0.1142   0.1220   0.1257   0.1287   0.1344   0.1439   0.1452   0.1474
  0.1591   0.1658   0.1717   0.1724   0.1836   0.1917   0.1935   0.2138
  0.2257   0.2299   0.2339   0.2437   0.2551   0.2586   0.2709   0.2716
  0.2818   0.2897   0.2906   0.3118   0.3231   0.3258   0.3297   0.3355
  0.3484   0.3550   0.3605   0.3610   0.3645   0.3705   0.3774   0.3822
  0.3869   0.3946   0.3999   0.4057   0.4110   0.4124   0.4233   0.4264
  0.4271   0.4410   0.4419   0.4511   0.4668   0.4714   0.4734   0.4802
  0.4893   0.5095   0.5130   0.5143   0.5205   0.5271   0.5309   0.5406
  0.5545   0.5574   0.5645   0.5811   0.5927   0.5955   0.6076   0.6110
  0.6235   0.6248   0.6372   0.6430   0.6538   0.6570   0.6733   0.6823
  0.6925   0.6975   0.7026   0.7083   0.7168   0.7344   0.7530   0.7578
  0.7633   0.7719   0.7787   0.7812   0.7896   0.7957   0.8112   0.8219
  0.8327   0.8431   0.8502   0.8593   0.8739   0.8970   0.9043   0.9089
  0.9162   0.9240   0.9335   0.9744   0.9923   0.9943   1.0064   1.0170
  1.0197   1.0418   1.0481   1.0568   1.0754   1.0799   1.1007   1.1219
  1.1488   1.1639   1.1840   1.1863   1.2042   1.2077   1.2369   1.2567
  1.2621   1.2824   1.2944   1.2994   1.3113   1.3227   1.3381   1.3458
  1.3546   1.3804   1.3852   1.3924   1.4111   1.4504   1.4653   1.4779
  1.4805   1.4924   1.5202   1.5304   1.5730   1.6254   1.6272   1.6328
  1.6932   1.7241   1.7277   1.7579   1.7764   1.7934   1.8355   1.8602
  1.9024   1.9154   1.9220   1.9671   1.9799   1.9967   2.0263   2.0452
  2.0469   2.0496   2.0710   2.1441   2.1461   2.1561   2.1951   2.2409
  2.2571   2.2853   2.3154   2.3433   2.3603   2.4210   2.4391   2.4457
  2.4692   2.5140   2.5439   2.5842   2.6204   2.6936   2.7288   2.7920
  2.8348   2.8456   2.8755   2.9179   2.9520   2.9636   2.9770   2.9950
  2.9984   3.0228   3.0365   3.0669   3.1190   3.1505   3.1653   3.1805
  3.2205   3.2280   3.2596   3.2792   3.2979   3.3022   3.3092   3.3342
  3.3390   3.3620   3.3695   3.3832   3.3951   3.4151   3.4243   3.4596
  3.4608   3.4756   3.4849   3.4937   3.5129   3.5152   3.5602   3.5698
  3.5784   3.6121   3.6231   3.6284   3.6307   3.6391   3.6555   3.6817
  3.7262   3.7397   3.8219   3.8240   3.8562   3.9235   3.9437   3.9654
  3.9860   3.9888   4.0348   4.0548   4.0600   4.1356   4.1667   4.2007
  4.2083   4.2336   4.2551   4.2847   4.2930   4.3354   4.3581   4.3872
  4.4109   4.4166   4.4439   4.4536   4.4953   4.5408   4.5608   4.6601
  4.6722   4.7036   4.7236   4.7704   4.8052   4.8130   4.8479   4.9251
  4.9395   4.9798   5.0328   5.0597   5.0795   5.1801   5.2108   5.2348
  5.2624   5.2876   5.3105   5.3123   5.3222   5.3650   5.4107   5.4256
  5.4891   5.5239   5.5413   5.5856   5.6094   5.6444   5.6751   5.6834
  5.6955   5.7387   5.7932   5.8148   5.9350   5.9500   5.9751   6.0679
  6.0973   6.1232   6.1728   6.2516   6.2794   6.2889   6.3071   6.3411
  6.4007   6.4403   6.4837   6.5578   6.6071   6.6224   6.6581   6.6978
  6.7114   6.8138   6.8491   6.8515   6.8788   6.9063   6.9420   6.9899
  7.0675   7.0929   7.1439   7.2645   7.4008   7.4091   7.4416   7.4991
  7.5101   7.5742   7.6596   7.7019   7.8396  14.8055  23.4877  23.6597
 23.9147  44.1701  44.1885  44.3673  44.6722
 
 Beta MOs
 -- Occupied --
-19.2999 -19.2460 -19.1798 -19.1753 -10.4167 -10.3284 -10.3257  -2.0990
 -1.2431  -1.2020  -1.1447  -1.0957  -0.9023  -0.7710  -0.6914  -0.6854
 -0.6128  -0.6081  -0.5968  -0.5744  -0.5540  -0.5381  -0.4876  -0.4851
 -0.4652  -0.4245  -0.4064  -0.3833  -0.3768
 -- Virtual --
  0.0311   0.0469   0.0473   0.0504   0.0554   0.0860   0.1013   0.1045
  0.1184   0.1290   0.1314   0.1316   0.1378   0.1406   0.1464   0.1486
  0.1519   0.1664   0.1726   0.1733   0.1800   0.1910   0.1999   0.2045
  0.2205   0.2313   0.2388   0.2401   0.2527   0.2607   0.2638   0.2767
  0.2793   0.2885   0.2972   0.3000   0.3164   0.3270   0.3296   0.3340
  0.3386   0.3512   0.3627   0.3651   0.3700   0.3724   0.3750   0.3832
  0.3889   0.3933   0.4031   0.4058   0.4098   0.4132   0.4212   0.4251
  0.4290   0.4384   0.4440   0.4441   0.4552   0.4711   0.4733   0.4756
  0.4845   0.4908   0.5119   0.5153   0.5162   0.5241   0.5308   0.5333
  0.5424   0.5562   0.5602   0.5664   0.5854   0.5952   0.5960   0.6111
  0.6131   0.6253   0.6294   0.6391   0.6461   0.6560   0.6587   0.6747
  0.6875   0.6943   0.6984   0.7052   0.7102   0.7206   0.7365   0.7542
  0.7594   0.7647   0.7740   0.7809   0.7830   0.7929   0.7971   0.8134
  0.8249   0.8332   0.8437   0.8516   0.8603   0.8755   0.8994   0.9057
  0.9106   0.9172   0.9256   0.9348   0.9747   0.9948   0.9955   1.0099
  1.0175   1.0228   1.0432   1.0501   1.0584   1.0779   1.0829   1.1021
  1.1225   1.1497   1.1658   1.1851   1.1893   1.2048   1.2093   1.2380
  1.2584   1.2637   1.2852   1.2956   1.3005   1.3128   1.3231   1.3385
  1.3502   1.3555   1.3825   1.3868   1.3941   1.4118   1.4543   1.4658
  1.4799   1.4831   1.4993   1.5237   1.5315   1.5753   1.6270   1.6276
  1.6357   1.6953   1.7252   1.7294   1.7583   1.7775   1.7938   1.8367
  1.8605   1.9031   1.9155   1.9224   1.9699   1.9839   1.9984   2.0280
  2.0462   2.0482   2.0530   2.0724   2.1447   2.1468   2.1613   2.1980
  2.2424   2.2582   2.2863   2.3162   2.3437   2.3611   2.4215   2.4427
  2.4460   2.4694   2.5161   2.5478   2.5858   2.6209   2.6957   2.7291
  2.7953   2.8387   2.8494   2.8763   2.9222   2.9546   2.9641   2.9782
  2.9959   3.0007   3.0252   3.0381   3.0680   3.1206   3.1549   3.1692
  3.1836   3.2222   3.2311   3.2610   3.2814   3.3023   3.3034   3.3126
  3.3376   3.3399   3.3660   3.3725   3.3860   3.3966   3.4204   3.4294
  3.4644   3.4662   3.4782   3.4887   3.4973   3.5183   3.5216   3.5615
  3.5726   3.5796   3.6141   3.6259   3.6300   3.6342   3.6428   3.6574
  3.6842   3.7279   3.7413   3.8240   3.8259   3.8586   3.9273   3.9454
  3.9672   3.9890   3.9918   4.0365   4.0570   4.0610   4.1405   4.1715
  4.2024   4.2137   4.2389   4.2650   4.2922   4.2949   4.3387   4.3603
  4.3925   4.4133   4.4178   4.4488   4.4598   4.4989   4.5494   4.5629
  4.6620   4.6798   4.7053   4.7266   4.7739   4.8066   4.8139   4.8498
  4.9273   4.9437   4.9861   5.0350   5.0629   5.0821   5.1811   5.2124
  5.2367   5.2638   5.2884   5.3113   5.3153   5.3247   5.3697   5.4121
  5.4277   5.4902   5.5244   5.5422   5.5866   5.6098   5.6451   5.6758
  5.6844   5.6973   5.7398   5.7942   5.8165   5.9353   5.9536   5.9761
  6.0680   6.0978   6.1296   6.1738   6.2516   6.2797   6.2902   6.3072
  6.3413   6.4064   6.4418   6.4941   6.5579   6.6072   6.6256   6.6590
  6.6980   6.7114   6.8141   6.8507   6.8587   6.8844   6.9074   6.9420
  6.9901   7.0746   7.0942   7.1447   7.2647   7.4027   7.4112   7.4419
  7.5037   7.5112   7.5810   7.6601   7.7036   7.8447  14.8055  23.4913
 23.6601  23.9147  44.1728  44.1908  44.3674  44.6730
 --------------------------------------------------------------
 
          Ground-State Mulliken Net Atomic Charges

     Atom                 Charge (a.u.)    Spin (a.u.)
  --------------------------------------------------------
      1 H                     0.172086       0.155699
      2 C                    -0.327456       0.485484
      3 H                     0.017730       0.081559
      4 H                     0.025731       0.074404
      5 C                    -0.201331       0.294068
      6 H                     0.104049      -0.005463
      7 H                     0.115730      -0.010213
      8 O                    -0.086526      -0.094017
      9 C                     0.619461       0.073738
     10 O                    -0.775595      -0.013927
     11 O                    -0.780601      -0.001037
     12 Li                    0.874827       0.000225
     13 O                     0.109491      -0.205922
     14 H                     0.132405       0.165401
  --------------------------------------------------------
  Sum of atomic charges =    -0.000000
  Sum of spin   charges =     1.000000

  Building new vdw surfaces
         Merz-Kollman RESP Net Atomic Charges

     Atom                 Charge (a.u.)
  ----------------------------------------
      1 H                     0.047256
      2 C                     0.918929
      3 H                    -0.118592
      4 H                    -0.118592
      5 C                     0.234903
      6 H                     0.015793
      7 H                     0.015793
      8 O                    -0.737579
      9 C                     1.146574
     10 O                    -0.834796
     11 O                    -0.834796
     12 Li                    0.810169
     13 O                    -0.592320
     14 H                     0.047256
  ----------------------------------------
  Sum of atomic charges =     0.000000

  Related Dipole Moment =     5.2738 (X  2.0162 Y -4.1890 Z -2.4900)

 -----------------------------------------------------------------
                    Cartesian Multipole Moments
 -----------------------------------------------------------------
    Charge (ESU x 10^10)
                -0.0000
    Dipole Moment (Debye)
         X       3.3572      Y      -4.3966      Z      -3.2586
       Tot       6.4202
    Quadrupole Moments (Debye-Ang)
        XX     -40.2581     XY     -28.2095     YY     -19.0865
        XZ     -16.1361     YZ      15.0297     ZZ     -35.5632
    Octopole Moments (Debye-Ang^2)
       XXX    -416.8455    XXY    -118.0761    XYY      38.7405
       YYY      23.7251    XXZ     -72.7114    XYZ     102.7122
       YYZ     -54.1088    XZZ     -74.8412    YZZ       5.5437
       ZZZ      52.9833
    Hexadecapole Moments (Debye-Ang^3)
      XXXX   -3681.4194   XXXY    -205.7611   XXYY     309.7984
      XYYY    -106.5889   YYYY    -282.6010   XXXZ    -138.9352
      XXYZ     528.4660   XYYZ    -361.4789   YYYZ     132.4888
      XXZZ    -277.9608   XYZZ     -45.9326   YYZZ       6.8936
      XZZZ     241.1452   YZZZ    -105.0178   ZZZZ    -275.6853
 -----------------------------------------------------------------
 Calculating analytic gradient of the SCF energy
 Gradient of CDS energy
            1           2           3           4           5           6
    1  -0.0000958   0.0003268  -0.0001441  -0.0001729  -0.0000797   0.0000819
    2   0.0000828   0.0009606  -0.0002012  -0.0001356  -0.0004189   0.0000199
    3   0.0000375   0.0005400  -0.0000459  -0.0001398  -0.0002194  -0.0001630
            7           8           9          10          11          12
    1   0.0000688  -0.0007318   0.0003137  -0.0000080   0.0001825   0.0000151
    2  -0.0001231   0.0005518   0.0000380  -0.0000955  -0.0003784  -0.0000255
    3   0.0000968   0.0003325   0.0000244  -0.0000667  -0.0002317  -0.0000133
           13          14
    1   0.0003453  -0.0001019
    2  -0.0003503   0.0000755
    3  -0.0001981   0.0000468
 Gradient of SCF Energy
            1           2           3           4           5           6
    1   0.0007451  -0.0103648   0.0034186   0.0028962   0.0062383  -0.0010209
    2  -0.0005968  -0.0045814   0.0054043   0.0004860   0.0012357  -0.0028472
    3   0.0000004  -0.0012383  -0.0023981   0.0054490   0.0014900   0.0031069
            7           8           9          10          11          12
    1  -0.0017632   0.0009200  -0.0004156  -0.0021394  -0.0008583   0.0022113
    2   0.0012847  -0.0002287  -0.0015939   0.0028695   0.0051075  -0.0061927
    3  -0.0043518  -0.0003209  -0.0011548   0.0019957   0.0031361  -0.0038731
           13          14
    1   0.0006731  -0.0005405
    2  -0.0005018   0.0001548
    3   0.0006822  -0.0025234
 Max gradient component =       1.036E-02
 RMS gradient           =       3.183E-03
 Computing fast CPCM-SWIG gradient
 Updating gradient with PCM contributions...
 -- total gradient after adding PCM contribution --
---------------------------------------------------
  Atom         X              Y              Z     
---------------------------------------------------
   1      -0.000114      -0.000109       0.000095
   2       0.000055       0.000001       0.000002
   3      -0.000008       0.000000      -0.000009
   4       0.000014       0.000009      -0.000007
   5      -0.000011      -0.000001      -0.000005
   6       0.000008      -0.000001       0.000007
   7      -0.000004      -0.000009       0.000007
   8       0.000009       0.000004      -0.000008
   9      -0.000002       0.000004      -0.000004
  10      -0.000002      -0.000005       0.000003
  11      -0.000000       0.000004      -0.000014
  12      -0.000003      -0.000001      -0.000003
  13       0.000104       0.000125      -0.000075
  14      -0.000047      -0.000022       0.000010
---------------------------------------------------
 Number of fixed atoms: 0
 Gradient time:  CPU 514.98 s  wall 21.75 s
 ----------------------------------------------------------------
             Standard Nuclear Orientation (Angstroms)
    I     Atom           X                Y                Z
 ----------------------------------------------------------------
    1      H       0.1499349052    -0.1698910144     0.9773770374
    2      C       2.3013334408     0.2670142501     0.2404618931
    3      H       2.6081297837     1.1597929842    -0.2959120888
    4      H       2.6286840180     0.2718644717     1.2757999350
    5      C       2.5623153930    -1.0220236657    -0.4927923903
    6      H       2.1753648775    -1.8831135842     0.0549938154
    7      H       2.1278552513    -1.0114454233    -1.4940054146
    8      O       3.9985893263    -1.1135003006    -0.5899392340
    9      C       4.4891497945    -2.1924562709    -1.2361656836
   10      O       3.7045947293    -3.0559646582    -1.7129610394
   11      O       5.7419312510    -2.2675603221    -1.3236734666
   12      Li      5.3422683007    -3.8736672643    -2.2546326084
   13      O       0.6730853592     0.4957803135     0.3961388477
   14      H       0.1640335697     0.5631204845    -0.4723896028
 ----------------------------------------------------------------
 Nuclear Repulsion Energy =         335.27801113 hartrees
 There are       30 alpha and       29 beta electrons
 Discretize the solute cavity surface with Lebedev spheres
	Using 110 Lebedev grid points for each H atom
	Using 194 Lebedev grid points for other atoms
	Atomic van der Waals radii will be scaled by 1.20
 Remove points where switching function is < 1.0e-08
 Keep 930 surface tesserae and discard 1282 interior tesserae
 Molecular Surface Area = 188.817 Angst**2

                       Distance Matrix (Angstroms)
             H (  1)   C (  2)   H (  3)   H (  4)   C (  5)   H (  6)
   C (  2)  2.315696
   H (  3)  3.071164  1.085760
   H (  4)  2.535429  1.085867  1.805303
   C (  5)  2.950781  1.505786  2.191161  2.192366
   H (  6)  2.808610  2.161785  3.093493  2.517895  1.091456
   H (  7)  3.275380  2.161696  2.525939  3.093467  1.091465  1.778050
   O (  8)  4.261340  2.340099  2.680987  2.697565  1.442459  2.081440
   C (  9)  5.274403  3.607764  3.957258  3.980475  2.373859  2.667656
   O ( 10)  5.310645  4.102096  4.580707  4.600513  2.632590  2.615299
   O ( 11)  6.400428  4.550637  4.756444  4.785211  3.514496  3.843035
   Li( 12)  7.150117  5.711219  6.053744  6.083825  4.354778  4.396130
   O ( 13)  1.026958  1.651593  2.159686  2.155994  2.581302  2.834142
   H ( 14)  1.624601  2.272419  2.522056  3.035704  2.874866  3.210553
             H (  7)   O (  8)   C (  9)   O ( 10)   O ( 11)   Li( 12)
   O (  8)  2.080240
   C (  9)  2.652731  1.349965
   O ( 10)  2.591160  2.262914  1.260360
   O ( 11)  3.829932  2.215730  1.258078  2.218979
   Li( 12)  4.370734  3.492162  2.142792  1.908932  1.898946
   O ( 13)  2.821477  3.823756  4.945036  5.123792  6.023870  6.922422
   H ( 14)  2.716533  4.186728  5.184900  5.212712  6.312716  7.048091
             O ( 13)
   H ( 14)  1.008965
 
 Requested basis set is def2-TZVPPD
 There are 147 shells and 395 basis functions
 A cutoff of  1.0D-14 yielded   9941 shell pairs
 There are     71999 function pairs (     90644 Cartesian)
 Smallest overlap matrix eigenvalue = 6.53E-06
 Guess MOs from SCF MO coefficient file

 -----------------------------------------------------------------------
  General SCF calculation program by
  Eric Jon Sundstrom, Paul Horn, Yuezhi Mao, Dmitri Zuev, Alec White,
  David Stuck, Shaama M.S., Shane Yost, Joonho Lee, David Small,
  Daniel Levine, Susi Lehtola, Hugh Burton, Evgeny Epifanovsky,
  Bang C. Huynh
 -----------------------------------------------------------------------
 Exchange:     0.1670 Hartree-Fock + 1.0000 wB97X-V + LR-HF
 Correlation:  1.0000 wB97X-V
 Using SG-3 standard quadrature grid
 Nonlocal Correlation:  VV10 with C = 0.0100 and b = 6.00 and scale = 1.00000
 Grid used for NLC:  SG-1 standard quadrature
 
 Citation of the SMD model:
 Marenich, A.V.; Cramer, C.J.; Truhlar, D.G.
 J. Phys. Chem. B 2009, 113, 6378-6396.
 iSolventCode=           0
 Solvent: other                                                           
 
 vradii
            1           2           3           4           5           6
    1   1.2000000   1.8500000   1.2000000   1.2000000   1.8500000   1.2000000
            7           8           9          10          11          12
    1   1.2000000   2.2940000   1.8500000   2.2940000   2.2940000   2.1476001
           13          14
    1   2.2940000   1.2000000
 using 32 threads for integral computing
 -------------------------------------------------------
 OpenMP Integral computing Module                
 Release: version 1.0, May 2013, Q-Chem Inc. Pittsburgh 
 -------------------------------------------------------
 using 32 threads for integral computing
 -------------------------------------------------------
 OpenMP Integral computing Module                
 Release: version 1.0, May 2013, Q-Chem Inc. Pittsburgh 
 -------------------------------------------------------
 -------------------------------------------------------
 OpenMP BLAS3 based DFT computing Module                
 Release: version 1.0, May 2013, Q-Chem Inc. Pittsburgh 
 -------------------------------------------------------
 -------------------------------------------------------
 OpenMP BLAS3 based DFT computing Module                
 Release: version 1.0, May 2013, Q-Chem Inc. Pittsburgh 
 -------------------------------------------------------
 -------------------------------------------------------
 OpenMP BLAS3 based DFT computing Module                
 Release: version 1.0, May 2013, Q-Chem Inc. Pittsburgh 
 -------------------------------------------------------
 A unrestricted SCF calculation will be
 performed using Roothaan-Hall, DIIS
 SCF converges when DIIS error is below 1.0e-08
 ---------------------------------------
  Cycle       Energy         DIIS error
 ---------------------------------------
    1    -426.6574263684      8.97e-05  Roothaan Step
 ---------------------------------------
  Cycle       Energy         DIIS error
 ---------------------------------------
    1    -426.3566533088      9.65e-05  
    2    -426.3575179700      6.53e-05  
    3    -426.3577465935      2.48e-05  
    4    -426.3577915966      7.89e-06  
    5    -426.3578036045      4.07e-06  
    6    -426.3578083044      1.96e-06  
    7    -426.3578116689      1.34e-06  
    8    -426.3578132477      9.88e-07  
    9    -426.3578141680      4.89e-07  
   10    -426.3578144009      4.05e-07  
   11    -426.3578145882      2.81e-07  
   12    -426.3578147421      1.36e-07  
   13    -426.3578147785      6.98e-08  
   14    -426.3578147858      5.09e-08  
   15    -426.3578147888      3.92e-08  
   16    -426.3578147915      2.58e-08  
   17    -426.3578147933      1.25e-08  
   18    -426.3578147936      4.94e-09  Convergence criterion met
 ---------------------------------------
 SCF time:   CPU 3387.75s  wall 130.00s 
<S^2> =          0.752815320
(3)  G-ENP(liq) elect-nuc-pol free energy of system     -426.357814794 a.u.
(4)  G-CDS(liq) cavity-dispersion-solvent structure 
     free energy                                               -3.2315 kcal/mol
(6)  G-S(liq) free energy of system                     -426.362964498 a.u.
 SCF   energy in the final basis set =     -426.3578147936
 Total energy in the final basis set =     -426.3629644978
 
 --------------------------------------------------------------
 
                    Orbital Energies (a.u.)
 --------------------------------------------------------------
 
 Alpha MOs
 -- Occupied --
-19.3047 -19.2466 -19.1798 -19.1753 -10.4167 -10.3317 -10.3256  -2.0990
 -1.2438  -1.2134  -1.1456  -1.0958  -0.9081  -0.7766  -0.6993  -0.6878
 -0.6147  -0.6139  -0.5976  -0.5787  -0.5555  -0.5430  -0.4914  -0.4878
 -0.4666  -0.4253  -0.4070  -0.3833  -0.3770  -0.1639
 -- Virtual --
  0.0305   0.0465   0.0483   0.0502   0.0752   0.0768   0.0884   0.1012
  0.1142   0.1221   0.1257   0.1287   0.1345   0.1439   0.1452   0.1474
  0.1591   0.1658   0.1717   0.1724   0.1836   0.1917   0.1935   0.2138
  0.2258   0.2300   0.2339   0.2437   0.2551   0.2586   0.2709   0.2716
  0.2818   0.2897   0.2906   0.3118   0.3231   0.3258   0.3298   0.3355
  0.3485   0.3550   0.3605   0.3611   0.3645   0.3705   0.3774   0.3822
  0.3869   0.3946   0.4000   0.4057   0.4111   0.4124   0.4234   0.4264
  0.4271   0.4410   0.4419   0.4511   0.4668   0.4714   0.4734   0.4802
  0.4893   0.5095   0.5130   0.5143   0.5205   0.5271   0.5309   0.5406
  0.5546   0.5575   0.5645   0.5811   0.5927   0.5955   0.6076   0.6110
  0.6235   0.6248   0.6372   0.6430   0.6538   0.6570   0.6733   0.6823
  0.6925   0.6975   0.7026   0.7083   0.7168   0.7344   0.7530   0.7578
  0.7633   0.7719   0.7788   0.7813   0.7895   0.7957   0.8112   0.8219
  0.8327   0.8431   0.8502   0.8593   0.8739   0.8971   0.9043   0.9089
  0.9162   0.9240   0.9335   0.9745   0.9923   0.9944   1.0065   1.0170
  1.0197   1.0418   1.0481   1.0568   1.0754   1.0800   1.1007   1.1219
  1.1488   1.1640   1.1840   1.1864   1.2042   1.2078   1.2369   1.2568
  1.2621   1.2825   1.2945   1.2993   1.3113   1.3227   1.3381   1.3459
  1.3546   1.3804   1.3853   1.3925   1.4111   1.4503   1.4653   1.4779
  1.4806   1.4926   1.5203   1.5304   1.5730   1.6254   1.6272   1.6329
  1.6932   1.7241   1.7278   1.7579   1.7764   1.7934   1.8355   1.8602
  1.9024   1.9154   1.9221   1.9671   1.9799   1.9967   2.0263   2.0452
  2.0469   2.0498   2.0711   2.1441   2.1461   2.1565   2.1953   2.2409
  2.2571   2.2853   2.3154   2.3433   2.3603   2.4211   2.4389   2.4457
  2.4692   2.5139   2.5439   2.5842   2.6204   2.6935   2.7288   2.7920
  2.8346   2.8456   2.8755   2.9179   2.9521   2.9636   2.9770   2.9950
  2.9985   3.0227   3.0364   3.0669   3.1190   3.1504   3.1652   3.1804
  3.2205   3.2279   3.2596   3.2792   3.2979   3.3022   3.3093   3.3343
  3.3391   3.3621   3.3696   3.3833   3.3952   3.4152   3.4247   3.4601
  3.4608   3.4758   3.4850   3.4938   3.5131   3.5154   3.5602   3.5699
  3.5784   3.6122   3.6231   3.6284   3.6309   3.6392   3.6555   3.6819
  3.7262   3.7397   3.8219   3.8241   3.8565   3.9235   3.9437   3.9655
  3.9861   3.9889   4.0348   4.0548   4.0602   4.1358   4.1667   4.2008
  4.2087   4.2336   4.2555   4.2853   4.2930   4.3355   4.3583   4.3875
[...]
 Red. Mass:       4.7028                 5.0269                 2.2563
 IR Active:          YES                    YES                    YES
 IR Intens:      112.094                 61.468               1545.093
 Raman Active:       YES                    YES                    YES
               X      Y      Z        X      Y      Z        X      Y      Z
 H          0.240 -0.090  0.059    0.020 -0.278 -0.178    0.754 -0.128 -0.009
 C         -0.006  0.049 -0.092    0.138  0.217  0.104    0.136 -0.104  0.010
 H         -0.063  0.085 -0.064    0.063  0.242  0.102    0.197 -0.121  0.020
 H          0.057  0.009 -0.111    0.077  0.236  0.123    0.126 -0.165  0.011
 C         -0.003  0.080 -0.146   -0.000  0.190  0.102   -0.036 -0.075 -0.025
 H         -0.355  0.088 -0.386   -0.111  0.264  0.145   -0.021 -0.096 -0.045
 H          0.338  0.289 -0.292   -0.099  0.249  0.141   -0.055 -0.032 -0.014
 O          0.012 -0.180  0.324   -0.066 -0.058 -0.025   -0.061  0.015 -0.017
 C         -0.000  0.004  0.007   -0.137 -0.080 -0.040   -0.048  0.045  0.021
 O         -0.007  0.023 -0.018   -0.063 -0.119 -0.065   -0.052  0.042  0.026
 O         -0.009  0.119 -0.203   -0.120 -0.002  0.001   -0.048  0.080  0.054
 Li        -0.012 -0.120  0.204    0.430  0.123  0.058   -0.080  0.108  0.065
 O          0.013 -0.029  0.025    0.049 -0.153 -0.071    0.116 -0.031 -0.092
 H         -0.182 -0.054  0.085    0.223 -0.209 -0.150   -0.322 -0.301 -0.022
 TransDip   0.023 -0.158  0.299    0.159  0.186 -0.057   -0.016 -0.575  1.120

 Mode:                10                     11                     12
 Frequency:       381.87                 388.34                 522.97
 Force Cnst:      0.1905                 0.3150                 0.1988
 Red. Mass:       2.2170                 3.5453                 1.2337
 IR Active:          YES                    YES                    YES
 IR Intens:     1727.910                574.314                259.808
 Raman Active:       YES                    YES                    YES
               X      Y      Z        X      Y      Z        X      Y      Z
 H          0.666 -0.083  0.045    0.576 -0.223 -0.061   -0.095  0.471  0.360
 C         -0.147 -0.021  0.059   -0.053  0.125  0.123   -0.010  0.003  0.015
 H         -0.109 -0.001  0.114   -0.046  0.145  0.159   -0.008  0.019  0.042
 H         -0.190 -0.032  0.074   -0.109  0.113  0.141   -0.052  0.007  0.029
 C          0.043  0.007  0.019   -0.059  0.105  0.074    0.019  0.023  0.017
 H          0.093 -0.047 -0.029   -0.106  0.124  0.078    0.005  0.029  0.021
 H          0.069  0.010  0.013   -0.125  0.165  0.103   -0.002  0.038  0.027
 O          0.077  0.040  0.005   -0.066 -0.036 -0.031    0.001  0.001 -0.003
 C          0.001 -0.020 -0.016    0.063 -0.022 -0.018   -0.007 -0.003 -0.003
 O         -0.049  0.024  0.016    0.183 -0.120 -0.076    0.004 -0.013 -0.008
 O          0.001 -0.115 -0.064    0.062  0.071  0.043   -0.008  0.013  0.008
 Li         0.223 -0.002 -0.009   -0.250 -0.230 -0.126   -0.009 -0.005 -0.003
 O         -0.047  0.095 -0.019   -0.024  0.026 -0.039    0.044 -0.086 -0.063
 H         -0.571 -0.111  0.079   -0.338 -0.240 -0.021   -0.476  0.579  0.229
 TransDip   0.290 -0.561  1.172   -0.040 -0.361  0.676    0.002 -0.270  0.440

 Mode:                13                     14                     15
 Frequency:       543.80                 623.55                 755.90
 Force Cnst:      1.2807                 1.7842                 2.3944
 Red. Mass:       7.3503                 7.7887                 7.1123
 IR Active:          YES                    YES                    YES
 IR Intens:      253.225                 58.151                 49.088
 Raman Active:       YES                    YES                    YES
               X      Y      Z        X      Y      Z        X      Y      Z
 H          0.064 -0.047  0.003    0.015 -0.069 -0.055   -0.031  0.083 -0.041
 C         -0.111  0.045  0.031   -0.072 -0.086 -0.050    0.053 -0.104  0.012
 H         -0.128  0.077  0.071   -0.114 -0.042 -0.003   -0.109 -0.273 -0.359
 H         -0.154  0.071  0.046   -0.114 -0.036 -0.035    0.348  0.181 -0.088
 C          0.094  0.030  0.015    0.375 -0.015 -0.022   -0.073  0.002  0.031
 H          0.097  0.028  0.012    0.447 -0.090 -0.083    0.010 -0.211 -0.256
 H          0.092  0.021  0.017    0.448 -0.106 -0.058    0.095  0.238 -0.041
 O          0.100 -0.117 -0.070    0.214  0.055  0.026    0.005  0.313  0.171
 C          0.019 -0.099 -0.058   -0.179 -0.071 -0.034   -0.129  0.149  0.078
 O          0.052 -0.156 -0.093   -0.073 -0.203 -0.116    0.302 -0.154 -0.096
 O          0.042 -0.065 -0.040   -0.231  0.305  0.185   -0.228 -0.204 -0.107
 Li        -0.364  0.698  0.424   -0.031 -0.152 -0.088   -0.035  0.051  0.031
 O         -0.031  0.040  0.017   -0.034  0.066  0.037    0.024 -0.012 -0.018
 H         -0.064 -0.010  0.011    0.035 -0.080 -0.007    0.068 -0.014 -0.064
 TransDip  -0.181  0.395  0.266    0.187 -0.108 -0.114   -0.142  0.044  0.168

 Mode:                16                     17                     18
 Frequency:       763.38                 841.09                 983.93
 Force Cnst:      0.4176                 4.8852                 0.6800
 Red. Mass:       1.2163                11.7206                 1.1921
 IR Active:          YES                    YES                    YES
 IR Intens:      113.238                 64.017                542.997
 Raman Active:       YES                    YES                    YES
               X      Y      Z        X      Y      Z        X      Y      Z
 H         -0.019  0.084 -0.035    0.002  0.033 -0.012   -0.019 -0.127  0.061
 C         -0.013 -0.035  0.086   -0.002 -0.016  0.031    0.007  0.043 -0.061
 H         -0.342 -0.201 -0.383   -0.139 -0.029 -0.071    0.579 -0.169 -0.097
 H          0.285  0.476 -0.013    0.129  0.081 -0.012   -0.552  0.186  0.114
 C          0.009 -0.018  0.033   -0.002  0.013 -0.022    0.034 -0.049  0.062
 H         -0.067 -0.220 -0.349    0.110 -0.036 -0.027   -0.110 -0.186 -0.260
 H          0.046  0.425  0.016   -0.111  0.040  0.021    0.135  0.304  0.015
 O          0.001 -0.030 -0.031   -0.005  0.090 -0.155   -0.022 -0.002 -0.028
 C          0.015 -0.009 -0.028    0.027 -0.443  0.756   -0.003  0.005  0.015
 O         -0.036  0.013  0.016   -0.008  0.123 -0.210    0.016  0.014  0.004
 O          0.028  0.021  0.019   -0.006  0.121 -0.207   -0.014 -0.006 -0.005
 Li         0.004 -0.005 -0.004    0.001 -0.018  0.030    0.001 -0.000  0.000
 O          0.002  0.009 -0.017    0.002  0.003 -0.008   -0.010 -0.006  0.021
 H          0.019 -0.000 -0.071    0.001 -0.002 -0.026   -0.019  0.007  0.109
 TransDip   0.075 -0.178  0.280    0.008 -0.127  0.223    0.052  0.344 -0.661

 Mode:                19                     20                     21
 Frequency:       990.61                1107.69                1113.58
 Force Cnst:      4.2211                 3.3074                 4.3531
 Red. Mass:       7.3008                 4.5751                 5.9580
 IR Active:          YES                    YES                    YES
 IR Intens:       80.572                 71.998                570.671
 Raman Active:       YES                    YES                    YES
               X      Y      Z        X      Y      Z        X      Y      Z
 H          0.003  0.039 -0.027    0.023  0.034  0.073    0.039 -0.005 -0.033
 C         -0.010  0.042  0.066    0.032  0.246  0.139   -0.065 -0.201 -0.118
 H         -0.475  0.274  0.178   -0.060  0.317  0.185   -0.035 -0.274 -0.196
 H          0.059  0.138  0.051   -0.057  0.321  0.177   -0.099 -0.292 -0.121
 C          0.397 -0.068 -0.091   -0.208 -0.245 -0.135   -0.166  0.242  0.146
 H          0.301  0.036  0.032    0.023 -0.398 -0.215   -0.186  0.328  0.226
 H          0.171 -0.203 -0.006    0.010 -0.398 -0.229   -0.162  0.372  0.167
 O         -0.269 -0.220 -0.106    0.236 -0.074 -0.050    0.243 -0.228 -0.143
 C         -0.054  0.145  0.082   -0.032  0.063  0.037   -0.062  0.090  0.055
 O          0.218  0.177  0.097    0.052  0.034  0.018    0.129  0.119  0.065
 O         -0.192 -0.088 -0.044   -0.127  0.020  0.016   -0.171  0.013  0.014
 Li         0.009 -0.008 -0.005    0.006 -0.015 -0.009    0.009 -0.024 -0.015
 O         -0.014  0.028  0.001   -0.005 -0.019 -0.010    0.037  0.002  0.006
 H         -0.029 -0.007 -0.033    0.020  0.077 -0.020    0.084 -0.035 -0.015
 TransDip   0.272 -0.016  0.092   -0.177  0.176  0.107   -0.703  0.222  0.206

 Mode:                22                     23                     24
 Frequency:      1198.28                1209.71                1296.22
 Force Cnst:      0.9911                 1.1623                 1.0769
 Red. Mass:       1.1716                 1.3480                 1.0879
 IR Active:          YES                    YES                    YES
 IR Intens:       95.073                 32.572                 37.611
 Raman Active:       YES                    YES                    YES
               X      Y      Z        X      Y      Z        X      Y      Z
 H         -0.041 -0.043  0.035   -0.002  0.015 -0.008    0.021  0.008  0.002
 C         -0.075  0.044  0.048   -0.020  0.047 -0.053   -0.001 -0.034  0.064
 H          0.663 -0.274 -0.079   -0.093  0.259  0.263    0.080 -0.207 -0.175
 H          0.621 -0.061 -0.165    0.386 -0.412 -0.174   -0.070  0.255  0.087
 C          0.018  0.025 -0.022    0.008 -0.072  0.131    0.001  0.012 -0.022
 H          0.166 -0.026  0.000   -0.444 -0.066 -0.166   -0.481  0.365  0.212
 H         -0.032 -0.084 -0.004    0.464  0.164 -0.058    0.490 -0.365 -0.228
 O          0.004 -0.024 -0.002   -0.001  0.018 -0.042   -0.002  0.015 -0.027
 C         -0.000 -0.002 -0.002   -0.000 -0.002  0.001   -0.000  0.001  0.000
 O          0.008  0.010  0.006    0.002  0.004 -0.000   -0.000  0.000 -0.000
 O         -0.009  0.000  0.000   -0.002 -0.000  0.001    0.000 -0.000  0.000
 Li        -0.000  0.000  0.000   -0.000  0.000  0.000    0.000 -0.000 -0.000
 O         -0.040 -0.006 -0.008   -0.008  0.001 -0.007   -0.001 -0.003  0.003
 H         -0.086  0.009 -0.003   -0.015  0.007 -0.026    0.011  0.014 -0.015
 TransDip   0.279  0.104 -0.093    0.060 -0.073  0.157   -0.018 -0.093  0.172

 Mode:                25                     26                     27
 Frequency:      1334.04                1356.42                1447.10
 Force Cnst:      1.1932                 1.6429                 3.4621
 Red. Mass:       1.1380                 1.5156                 2.8060
 IR Active:          YES                    YES                    YES
 IR Intens:      595.376                606.740                544.454
 Raman Active:       YES                    YES                    YES
               X      Y      Z        X      Y      Z        X      Y      Z
 H          0.467  0.008  0.420   -0.251  0.036 -0.268    0.016 -0.018  0.027
 C         -0.003  0.000 -0.005    0.002  0.009  0.003   -0.031 -0.046 -0.024
 H         -0.028 -0.031 -0.066   -0.061 -0.026 -0.083    0.155  0.145  0.383
 H         -0.044 -0.079  0.005   -0.077 -0.087  0.024    0.153  0.407 -0.076
 C         -0.016  0.041  0.025   -0.057  0.084  0.050    0.042 -0.084 -0.049
 H          0.201 -0.137 -0.109    0.450 -0.291 -0.199   -0.172  0.278  0.349
 H          0.175 -0.136 -0.057    0.464 -0.312 -0.170   -0.183  0.441  0.065
 O         -0.018 -0.016 -0.008   -0.025 -0.041 -0.023    0.035 -0.042 -0.026
 C         -0.022  0.040  0.024   -0.052  0.098  0.059   -0.110  0.252  0.151
 O         -0.013 -0.016 -0.009   -0.030 -0.038 -0.021   -0.070 -0.103 -0.057
 O          0.029 -0.004 -0.003    0.063 -0.009 -0.008    0.114 -0.022 -0.017
 Li         0.002 -0.005 -0.003    0.005 -0.011 -0.007    0.011 -0.020 -0.012
 O         -0.049 -0.021 -0.006    0.053  0.004  0.005   -0.009  0.003  0.001
 H          0.515  0.345 -0.273   -0.259 -0.201  0.149    0.017  0.010 -0.017
 TransDip  -0.766  0.153  0.002   -0.549  0.279  0.493   -0.332  0.592  0.314

 Mode:                28                     29                     30
 Frequency:      1472.46                1509.13                1638.19
 Force Cnst:      1.5864                 1.5449                20.2272
 Red. Mass:       1.2418                 1.1513                12.7925
 IR Active:          YES                    YES                    YES
 IR Intens:       27.000                 48.011                874.770
 Raman Active:       YES                    YES                    YES
               X      Y      Z        X      Y      Z        X      Y      Z
 H          0.020  0.014 -0.004    0.015 -0.002  0.016    0.004  0.004 -0.004
 C         -0.008 -0.093 -0.054    0.002 -0.013 -0.008   -0.007 -0.012 -0.007
 H          0.146  0.244  0.582    0.024  0.054  0.114    0.007 -0.014  0.001
 H          0.126  0.628 -0.093    0.023  0.125 -0.013    0.005 -0.008 -0.013
 C         -0.025  0.059  0.034   -0.066 -0.039 -0.020   -0.011  0.041  0.025
 H          0.015 -0.131 -0.229    0.472  0.069  0.498    0.060  0.008 -0.004
 H          0.020 -0.263  0.007    0.451  0.475 -0.221    0.060  0.006  0.008
 O         -0.008  0.006  0.004   -0.019  0.006  0.005   -0.055 -0.039 -0.021
 C          0.017 -0.045 -0.027    0.021 -0.053 -0.032    0.814  0.284  0.138
 O          0.013  0.018  0.010    0.013  0.021  0.012   -0.226 -0.191 -0.103
 O         -0.017  0.004  0.003   -0.020  0.005  0.003   -0.347 -0.013  0.004
 Li        -0.002  0.003  0.002   -0.002  0.003  0.002    0.045  0.019  0.010
 O          0.002 -0.001  0.002   -0.003 -0.001 -0.001    0.001  0.000  0.001
 H          0.026  0.002 -0.013    0.016  0.012 -0.007    0.004 -0.001 -0.002
 TransDip  -0.053 -0.155  0.028    0.202 -0.055 -0.073    0.885  0.300  0.155

 Mode:                31                     32                     33
 Frequency:      2004.74                2869.34                3094.54
 Force Cnst:      2.7567                 5.0825                 5.9655
 Red. Mass:       1.1642                 1.0478                 1.0573
 IR Active:          YES                    YES                    YES
 IR Intens:    22409.586               1404.206                  1.190
 Raman Active:       YES                    YES                    YES
               X      Y      Z        X      Y      Z        X      Y      Z
 H          0.252  0.658 -0.515    0.241  0.281 -0.267    0.003  0.006 -0.004
 C         -0.037  0.023 -0.016   -0.020  0.006  0.006    0.001  0.003  0.001
 H          0.116 -0.014 -0.004   -0.000 -0.025  0.013   -0.003 -0.012  0.009
 H         -0.081 -0.001 -0.017    0.023 -0.002 -0.016   -0.004  0.001 -0.014
 C          0.007 -0.008 -0.004    0.003 -0.003 -0.000   -0.041 -0.046 -0.025
 H         -0.008 -0.004  0.015   -0.006  0.003  0.004    0.237  0.552 -0.363
 H         -0.022  0.025  0.016   -0.012  0.005 -0.016    0.271 -0.017  0.655
 O         -0.003  0.003  0.001   -0.001  0.001  0.001   -0.002  0.001  0.001
 C          0.001 -0.003 -0.002    0.000 -0.001 -0.000   -0.000 -0.002 -0.001
 O          0.000  0.001  0.001    0.000  0.000  0.000    0.001  0.000  0.000
 O         -0.001  0.001  0.000   -0.000  0.000  0.000   -0.000  0.000  0.000
 Li         0.000 -0.000  0.000    0.000 -0.000 -0.000   -0.000 -0.000 -0.000
 O          0.011 -0.054  0.075   -0.027 -0.015 -0.037   -0.001 -0.000 -0.000
 H         -0.011 -0.023 -0.452    0.410 -0.065  0.784    0.005 -0.001  0.010
 TransDip  -0.414 -2.263  4.206   -0.226  0.516 -1.060   -0.028  0.019 -0.009

 Mode:                34                     35                     36
 Frequency:      3150.97                3160.18                3240.84
 Force Cnst:      6.4995                 6.2120                 6.8963
 Red. Mass:       1.1111                 1.0558                 1.1144
 IR Active:          YES                    YES                    YES
 IR Intens:        6.905                  3.808                  0.642
 Raman Active:       YES                    YES                    YES
               X      Y      Z        X      Y      Z        X      Y      Z
 H         -0.003 -0.004  0.004    0.008  0.011 -0.010    0.000  0.004 -0.004
 C          0.000 -0.005  0.009   -0.032 -0.050 -0.029   -0.001  0.049 -0.085
 H          0.019  0.055 -0.036    0.190  0.573 -0.354   -0.195 -0.583  0.346
 H         -0.023  0.002 -0.073    0.208 -0.005  0.679    0.207  0.007  0.662
 C         -0.002  0.048 -0.084   -0.002  0.001  0.000   -0.000  0.005 -0.009
 H         -0.243 -0.562  0.348    0.004  0.009 -0.006   -0.022 -0.060  0.035
 H          0.270  0.001  0.641    0.008  0.000  0.019    0.025  0.003  0.068
 O         -0.000 -0.000  0.000    0.000 -0.000 -0.000   -0.000 -0.000  0.000
 C          0.000 -0.000  0.000    0.000  0.000  0.000    0.000 -0.000  0.000
 O          0.000 -0.000  0.000    0.000  0.000  0.000    0.000  0.000 -0.000
 O         -0.000  0.000 -0.000    0.000 -0.000 -0.000   -0.000  0.000 -0.000
 Li         0.000 -0.000  0.000   -0.000  0.000  0.000    0.000 -0.000 -0.000
 O         -0.000  0.000 -0.001   -0.002 -0.000 -0.000    0.000 -0.001  0.001
 H          0.009 -0.002  0.016    0.008 -0.002  0.015   -0.004  0.001 -0.012
 TransDip  -0.006  0.043 -0.072    0.046 -0.016 -0.039   -0.023  0.002 -0.011

 STANDARD THERMODYNAMIC QUANTITIES AT   298.15 K  AND     1.00 ATM

   This Molecule has  1 Imaginary Frequencies
   Zero point vibrational energy:       57.644 kcal/mol

   Atom    1 Element H  Has Mass    1.00783
   Atom    2 Element C  Has Mass   12.00000
   Atom    3 Element H  Has Mass    1.00783
   Atom    4 Element H  Has Mass    1.00783
   Atom    5 Element C  Has Mass   12.00000
   Atom    6 Element H  Has Mass    1.00783
   Atom    7 Element H  Has Mass    1.00783
   Atom    8 Element O  Has Mass   15.99491
   Atom    9 Element C  Has Mass   12.00000
   Atom   10 Element O  Has Mass   15.99491
   Atom   11 Element O  Has Mass   15.99491
   Atom   12 Element Li Has Mass    7.01600
   Atom   13 Element O  Has Mass   15.99491
   Atom   14 Element H  Has Mass    1.00783
   Molecular Mass:   113.042620 amu
   Principal axes and moments of inertia in amu*Bohr^2:
                             1           2           3
    Eigenvalues --      223.53825  1935.19003  2126.05843
          X               0.71502     0.69876     0.02180
          Y              -0.59701     0.62653    -0.50104
          Z              -0.36376     0.34524     0.86515
   Rotational Symmetry Number is   1
   The Molecule is an Asymmetric Top
   Translational Enthalpy:        0.889 kcal/mol
   Rotational Enthalpy:           0.889 kcal/mol
   Vibrational Enthalpy:         61.852 kcal/mol
   gas constant (RT):             0.592 kcal/mol
   Translational Entropy:        40.083  cal/mol.K
   Rotational Entropy:           28.310  cal/mol.K
   Vibrational Entropy:          27.410  cal/mol.K

   Total Enthalpy:               64.222 kcal/mol
   Total Entropy:                95.803  cal/mol.K
Archival summary:
1\1\n0039.lr6\FREQ\ProcedureUnspecified\BasisUnspecified\43i16(2)\ewcspott\FriJun1215:32:582020FriJun1215:32:582020\0\\#,FREQ,ProcedureUnspecified,BasisUnspecified,\\0,2\O\C,1,1.34996\O,2,1.25808,1,116.287\O,2,1.26036,1,120.164,3,-179.969,0\C,1,1.44246,2,116.408,3,179.758,0\H,5,1.09146,1,109.681,2,60.8134,0\H,5,1.09146,1,109.584,2,-58.9061,0\C,5,1.50579,1,105.05,2,-179.017,0\H,8,1.08576,5,114.479,1,65.0981,0\H,8,1.08587,5,114.574,1,-66.964,0\O,8,1.65159,5,109.593,1,179.205,0\H,11,1.00896,8,115.182,5,-60.6951,0\H,11,1.02761,8,117.733,5,65.3521,0\Li,3,1.89895,2,82.8199,1,-179.779,0\\\@

 Total job time:  13052.68s(wall), 335600.45s(cpu) 
 Fri Jun 12 15:32:58 2020

        *************************************************************
        *                                                           *
        *  Thank you very much for using Q-Chem.  Have a nice day.  *
        *                                                           *
        *************************************************************


