
Running Job 1 of 1 mol.qin
qchem mol.qin_1503.0 /tmp/chain_scratch/ 0
/global/common/cori/software/qchem/5.2/exe/qcprog.exe_s mol.qin_1503.0 /tmp/chain_scratch/
                  Welcome to Q-Chem
     A Quantum Leap Into The Future Of Chemistry


 Q-Chem 5.2, Q-Chem, Inc., Pleasanton, CA (2019)

 License issued to: National Energy Research Scientific Computing Center

 Yihan Shao,  Zhengting Gan,  E. Epifanovsky,  A. T. B. Gilbert,  M. Wormit,  
 J. Kussmann,  A. W. Lange,  A. Behn,  Jia Deng,  Xintian Feng,  D. Ghosh,  
 M. Goldey,  P. R. Horn,  L. D. Jacobson,  I. Kaliman,  T. Kus,  A. Landau,  
 Jie Liu,  E. I. Proynov,  R. M. Richard,  R. P. Steele,  E. J. Sundstrom,  
 H. L. Woodcock III,  P. M. Zimmerman,  D. Zuev,  B. Albrecht,  E. Alguire,  
 S. A. Baeppler,  D. Barton,  Z. Benda,  Y. A. Bernard,  E. J. Berquist,  
 K. B. Bravaya,  H. Burton,  D. Casanova,  Chun-Min Chang,  Yunqing Chen,  
 A. Chien,  K. D. Closser,  M. P. Coons,  S. Coriani,  S. Dasgupta,  
 A. L. Dempwolff,  M. Diedenhofen,  Hainam Do,  R. G. Edgar,  Po-Tung Fang,  
 S. Faraji,  S. Fatehi,  Qingguo Feng,  K. D. Fenk,  J. Fosso-Tande,  
 J. Gayvert,  Qinghui Ge,  A. Ghysels,  G. Gidofalvi,  J. Gomes,  
 J. Gonthier,  A. Gunina,  D. Hait,  M. W. D. Hanson-Heine,  
 P. H. P. Harbach,  A. W. Hauser,  M. F. Herbst,  J. E. Herr,  
 E. G. Hohenstein,  Z. C. Holden,  Kerwin Hui,  B. C. Huynh,  T.-C. Jagau,  
 Hyunjun Ji,  B. Kaduk,  K. Khistyaev,  Jaehoon Kim,  P. Klunzinger,  K. Koh,  
 D. Kosenkov,  L. Koulias,  T. Kowalczyk,  C. M. Krauter,  A. Kunitsa,  
 Ka Un Lao,  A. Laurent,  K. V. Lawler,  Joonho Lee,  D. Lefrancois,  
 S. Lehtola,  D. S. Levine,  Yi-Pei Li,  You-Sheng Lin,  Fenglai Liu,  
 E. Livshits,  A. Luenser,  P. Manohar,  E. Mansoor,  S. F. Manzer,  
 Shan-Ping Mao,  Yuezhi Mao,  N. Mardirossian,  A. V. Marenich,  
 T. Markovich,  L. A. Martinez-Martinez,  S. A. Maurer,  N. J. Mayhall,  
 S. C. McKenzie,  J.-M. Mewes,  P. Morgante,  A. F. Morrison,  
 J. W. Mullinax,  K. Nanda,  T. S. Nguyen-Beck,  R. Olivares-Amaya,  
 J. A. Parkhill,  Zheng Pei,  T. M. Perrine,  F. Plasser,  P. Pokhilko,  
 S. Prager,  A. Prociuk,  E. Ramos,  D. R. Rehn,  F. Rob,  M. Scheurer,  
 M. Schneider,  N. Sergueev,  S. M. Sharada,  S. Sharma,  D. W. Small,  
 T. Stauch,  T. Stein,  Yu-Chuan Su,  A. J. W. Thom,  A. Tkatchenko,  
 T. Tsuchimochi,  N. M. Tubman,  L. Vogt,  M. L. Vidal,  O. Vydrov,  
 M. A. Watson,  J. Wenzel,  M. de Wergifosse,  T. A. Wesolowski,  A. White,  
 J. Witte,  A. Yamada,  Jun Yang,  K. Yao,  S. Yeganeh,  S. R. Yost,  
 Zhi-Qiang You,  A. Zech,  Igor Ying Zhang,  Xing Zhang,  Yan Zhao,  
 Ying Zhu,  B. R. Brooks,  G. K. L. Chan,  C. J. Cramer,  M. S. Gordon,  
 W. J. Hehre,  A. Klamt,  M. W. Schmidt,  C. D. Sherrill,  D. G. Truhlar,  
 A. Aspuru-Guzik,  R. Baer,  A. T. Bell,  N. A. Besley,  Jeng-Da Chai,  
 A. E. DePrince, III,  R. A. DiStasio Jr.,  A. Dreuw,  B. D. Dunietz,  
 T. R. Furlani,  Chao-Ping Hsu,  Yousung Jung,  Jing Kong,  D. S. Lambrecht,  
 WanZhen Liang,  C. Ochsenfeld,  V. A. Rassolov,  L. V. Slipchenko,  
 J. E. Subotnik,  T. Van Voorhis,  J. M. Herbert,  A. I. Krylov,  
 P. M. W. Gill,  M. Head-Gordon

 Contributors to earlier versions of Q-Chem not listed above: 
 R. D. Adamson,  B. Austin,  J. Baker,  G. J. O. Beran,  K. Brandhorst,  
 S. T. Brown,  E. F. C. Byrd,  A. K. Chakraborty,  C.-L. Cheng,  
 Siu Hung Chien,  D. M. Chipman,  D. L. Crittenden,  H. Dachsel,  
 R. J. Doerksen,  A. D. Dutoi,  L. Fusti-Molnar,  W. A. Goddard III,  
 A. Golubeva-Zadorozhnaya,  S. R. Gwaltney,  G. Hawkins,  A. Heyden,  
 S. Hirata,  G. Kedziora,  F. J. Keil,  C. Kelley,  Jihan Kim,  R. A. King,  
 R. Z. Khaliullin,  P. P. Korambath,  W. Kurlancheek,  A. M. Lee,  M. S. Lee,  
 S. V. Levchenko,  Ching Yeh Lin,  D. Liotard,  R. C. Lochan,  I. Lotan,  
 P. E. Maslen,  N. Nair,  D. P. O'Neill,  D. Neuhauser,  E. Neuscamman,  
 C. M. Oana,  R. Olson,  B. Peters,  R. Peverati,  P. A. Pieniazek,  
 Y. M. Rhee,  J. Ritchie,  M. A. Rohrdanz,  E. Rosta,  N. J. Russ,  
 H. F. Schaefer III,  N. E. Schultz,  N. Shenvi,  A. C. Simmonett,  A. Sodt,  
 D. Stuck,  K. S. Thanthiriwatte,  V. Vanovschi,  Tao Wang,  A. Warshel,  
 C. F. Williams,  Q. Wu,  X. Xu,  W. Zhang

 Please cite Q-Chem as follows:
 Y. Shao et al., Mol. Phys. 113, 184-215 (2015)
 DOI: 10.1080/00268976.2014.952696

 Q-Chem 5.2.0 for Intel X86 EM64T Linux

 Parts of Q-Chem use Armadillo 8.300.2 (Tropical Shenanigans).
 http://arma.sourceforge.net/

 Q-Chem begins on Fri Oct  4 10:11:31 2019  

Host: cori04
0

     Scratch files written to /tmp/chain_scratch//
 May1019 |scratch|qcdevops|jenkins|workspace|build_RNUM -1
Processing $rem in /global/common/cori/software/qchem/5.2/config/preferences:
	 MEM_TOTAL  96000 
NAlpha2: 50
NElect   50
Mult     1
Symmetry turned off for PCM/SM12/SMD calculation

Checking the input file for inconsistencies... 	...done.

--------------------------------------------------------------
User input:
--------------------------------------------------------------
$molecule
-1 1
O     -0.6476449777      0.0451305667      1.1759139822
C     -0.6654557126     -0.2666753180     -0.0616222150
O      0.4346119692     -0.5211131676     -0.7333803419
O     -1.7781040451     -0.3548452790     -0.6856962061
Li     -2.4968088537      0.1498919248      0.9551905439
C      1.8207509203     -0.1583562663     -0.0393154973
C      2.2240249086      1.2262262684     -0.1247135739
H      1.6582521617     -0.5527417940      0.9645956636
H      2.4399260016     -0.8503729336     -0.6161557163
H      3.0396967041      1.4752110615     -0.8042558204
H      2.1736930080      1.8319287364      0.7806303305
$end

$rem
job_type = freq
basis = def2-tzvppd
max_scf_cycles = 200
gen_scfman = true
xc_grid = 3
scf_algorithm = diis
resp_charges = true
symmetry = false
sym_ignore = true
method = wb97xv
geom_opt_max_cycles = 200
solvent_method = smd
ideriv = 1
thresh = 14
$end

$smx
solvent other
$end
--------------------------------------------------------------
 ----------------------------------------------------------------
             Standard Nuclear Orientation (Angstroms)
    I     Atom           X                Y                Z
 ----------------------------------------------------------------
    1      O      -0.6476449777     0.0451305667     1.1759139822
    2      C      -0.6654557126    -0.2666753180    -0.0616222150
    3      O       0.4346119692    -0.5211131676    -0.7333803419
    4      O      -1.7781040451    -0.3548452790    -0.6856962061
    5      Li     -2.4968088537     0.1498919248     0.9551905439
    6      C       1.8207509203    -0.1583562663    -0.0393154973
    7      C       2.2240249086     1.2262262684    -0.1247135739
    8      H       1.6582521617    -0.5527417940     0.9645956636
    9      H       2.4399260016    -0.8503729336    -0.6161557163
   10      H       3.0396967041     1.4752110615    -0.8042558204
   11      H       2.1736930080     1.8319287364     0.7806303305
 ----------------------------------------------------------------
 Nuclear Repulsion Energy =         252.13128611 hartrees
 There are       25 alpha and       25 beta electrons
 Requested basis set is def2-TZVPPD
 There are 119 shells and 321 basis functions

 Total QAlloc Memory Limit  96000 MB
 Mega-Array Size       188 MB
 MEM_STATIC part       192 MB
 
 Citation of the SMD model:
 Marenich, A.V.; Cramer, C.J.; Truhlar, D.G.
 J. Phys. Chem. B 2009, 113, 6378-6396.
 iSolventCode=           0
 Solvent: other                                                           
 
 vradii
            1           2           3           4           5           6
    1   2.2940000   1.8500000   2.2940000   2.2940000   2.1476001   1.8500000
            7           8           9          10          11
    1   1.8500000   1.2000000   1.2000000   1.2000000   1.2000000
 Changing PCM_VDW_RADII to SMD_RADIUS
 Discretize the solute cavity surface with Lebedev spheres
	Using 110 Lebedev grid points for each H atom
	Using 194 Lebedev grid points for other atoms
	Atomic van der Waals radii will be scaled by 1.20
 Remove points where switching function is < 1.0e-08
 Keep 818 surface tesserae and discard 980 interior tesserae
 Molecular Surface Area = 158.133 Angst**2

                       Distance Matrix (Angstroms)
             O (  1)   C (  2)   O (  3)   O (  4)   Li(  5)   C (  6)
   C (  2)  1.276337
   O (  3)  2.266565  1.313829
   O (  4)  2.214387  1.278761  2.219466
   Li(  5)  1.865235  2.135718  3.448876  1.861130
   C (  6)  2.758835  2.488665  1.592074  3.661717  4.441327
   C (  7)  3.366468  3.252973  2.574037  4.339530  4.960943  1.444642
   H (  8)  2.391499  2.556282  2.093184  3.817220  4.214062  1.090772
   H (  9)  3.680562  3.208053  2.035544  4.247607  5.276458  1.093165
   H ( 10)  4.422973  4.160989  3.282804  5.155033  5.958609  2.177040
   H ( 11)  3.362863  3.629641  3.294456  4.748557  4.967223  2.181310
             C (  7)   H (  8)   H (  9)   H ( 10)
   H (  8)  2.161347
   H (  9)  2.144853  1.788400
   H ( 10)  1.090455  3.024867  2.409035
   H ( 11)  1.090439  2.446666  3.035891  1.840944
 
 A cutoff of  1.0D-14 yielded   6765 shell pairs
 There are     49983 function pairs (     63653 Cartesian)
 Smallest overlap matrix eigenvalue = 1.11E-05
 Guess from superposition of atomic densities
 Warning:  Energy on first SCF cycle will be non-variational
 SAD guess density has 48.090450 electrons

 -----------------------------------------------------------------------
  General SCF calculation program by
  Eric Jon Sundstrom, Paul Horn, Yuezhi Mao, Dmitri Zuev, Alec White,
  David Stuck, Shaama M.S., Shane Yost, Joonho Lee, David Small,
  Daniel Levine, Susi Lehtola, Hugh Burton, Evgeny Epifanovsky
 -----------------------------------------------------------------------
 Exchange:     0.1670 Hartree-Fock + 1.0000 wB97X-V + LR-HF
 Correlation:  1.0000 wB97X-V
 Using SG-3 standard quadrature grid
 Nonlocal Correlation:  VV10 with C = 0.0100 and b = 6.00 and scale = 1.00000
 Grid used for NLC:  SG-1 standard quadrature
 
 Citation of the SMD model:
 Marenich, A.V.; Cramer, C.J.; Truhlar, D.G.
 J. Phys. Chem. B 2009, 113, 6378-6396.
 iSolventCode=           0
 Solvent: other                                                           
 
 vradii
            1           2           3           4           5           6
    1   2.2940000   1.8500000   2.2940000   2.2940000   2.1476001   1.8500000
            7           8           9          10          11
    1   1.8500000   1.2000000   1.2000000   1.2000000   1.2000000
 using 32 threads for integral computing
 -------------------------------------------------------
 OpenMP Integral computing Module                
 Release: version 1.0, May 2013, Q-Chem Inc. Pittsburgh 
 -------------------------------------------------------
 using 32 threads for integral computing
 -------------------------------------------------------
 OpenMP Integral computing Module                
 Release: version 1.0, May 2013, Q-Chem Inc. Pittsburgh 
 -------------------------------------------------------
 -------------------------------------------------------
 OpenMP BLAS3 based DFT computing Module                
 Release: version 1.0, May 2013, Q-Chem Inc. Pittsburgh 
 -------------------------------------------------------
 -------------------------------------------------------
 OpenMP BLAS3 based DFT computing Module                
 Release: version 1.0, May 2013, Q-Chem Inc. Pittsburgh 
 -------------------------------------------------------
 -------------------------------------------------------
 OpenMP BLAS3 based DFT computing Module                
 Release: version 1.0, May 2013, Q-Chem Inc. Pittsburgh 
 -------------------------------------------------------
 A restricted SCF calculation will be
 performed using DIIS
 SCF converges when DIIS error is below 1.0e-08
 ---------------------------------------
  Cycle       Energy         DIIS error
 ---------------------------------------
    1    -348.9002892526      2.53e-02  
    2    -349.1008263134      1.06e-02  
    3    -349.6535957463      7.36e-03  
    4    -350.0897738453      6.89e-04  
    5    -350.0950584464      3.43e-04  
    6    -350.0966137930      1.35e-04  
    7    -350.0969834691      5.15e-05  
    8    -350.0971114861      1.42e-05  
    9    -350.0971257045      6.38e-06  
   10    -350.0971272441      2.04e-06  
   11    -350.0971274766      8.14e-07  
   12    -350.0971275188      5.85e-07  
   13    -350.0971275295      1.71e-07  
   14    -350.0971275320      4.75e-08  
   15    -350.0971275322      2.11e-08  
   16    -350.0971275323      7.64e-09  Convergence criterion met
 ---------------------------------------
 SCF time:   CPU 1678.67s  wall 61.00s 
(3)  G-ENP(liq) elect-nuc-pol free energy of system     -350.097127532 a.u.
(4)  G-CDS(liq) cavity-dispersion-solvent structure 
     free energy                                               -1.7246 kcal/mol
(6)  G-S(liq) free energy of system                     -350.099875863 a.u.
 SCF   energy in the final basis set =     -350.0971275323
 Total energy in the final basis set =     -350.0998758626
 
 --------------------------------------------------------------
 
                    Orbital Energies (a.u.)
 --------------------------------------------------------------
 
 Alpha MOs
 -- Occupied --
-19.1793 -19.1410 -19.1380 -10.3750 -10.2698 -10.1646  -2.0662  -1.1878
 -1.0803  -1.0481  -0.8246  -0.6811  -0.5999  -0.5581  -0.5451  -0.5337
 -0.4991  -0.4594  -0.4248  -0.3980  -0.3819  -0.3592  -0.3482  -0.3366
 -0.2208
 -- Virtual --
  0.0390   0.0552   0.0560   0.0645   0.1008   0.1118   0.1206   0.1274
  0.1431   0.1472   0.1524   0.1547   0.1625   0.1689   0.1734   0.1799
  0.1890   0.1986   0.2098   0.2214   0.2249   0.2376   0.2513   0.2610
  0.2668   0.2768   0.2919   0.3018   0.3063   0.3124   0.3298   0.3345
  0.3483   0.3599   0.3659   0.3743   0.3755   0.3872   0.4005   0.4055
  0.4099   0.4169   0.4301   0.4315   0.4372   0.4423   0.4431   0.4519
  0.4660   0.4755   0.4797   0.4879   0.4959   0.4984   0.5054   0.5174
  0.5237   0.5336   0.5403   0.5462   0.5497   0.5685   0.5750   0.5881
  0.5917   0.6016   0.6084   0.6165   0.6222   0.6423   0.6495   0.6722
  0.6803   0.6925   0.7049   0.7140   0.7203   0.7331   0.7428   0.7583
  0.7689   0.7926   0.7957   0.8135   0.8193   0.8274   0.8404   0.8532
  0.8613   0.8682   0.8737   0.8970   0.9074   0.9187   0.9250   0.9362
  0.9826   0.9891   1.0123   1.0284   1.0302   1.0453   1.0659   1.0761
  1.0987   1.1115   1.1297   1.1582   1.1898   1.2166   1.2251   1.2476
  1.2678   1.2704   1.2909   1.3020   1.3162   1.3363   1.3508   1.3670
  1.3767   1.3964   1.4289   1.4614   1.4914   1.4942   1.5201   1.5638
  1.5658   1.5907   1.6168   1.6566   1.6756   1.7399   1.7547   1.8014
  1.8145   1.8621   1.8892   1.9227   1.9289   1.9557   1.9710   1.9798
  1.9905   2.0139   2.0595   2.0744   2.1240   2.1368   2.1967   2.2153
  2.2449   2.3100   2.3226   2.3636   2.3967   2.4437   2.4691   2.4905
  2.5252   2.5556   2.6295   2.6475   2.7556   2.8173   2.8428   2.8797
  2.9103   2.9475   2.9571   2.9920   3.0112   3.0231   3.0558   3.0799
  3.0964   3.1228   3.1930   3.2389   3.2442   3.2748   3.3001   3.3206
  3.3455   3.3562   3.3884   3.3963   3.4068   3.4221   3.4369   3.4546
  3.4885   3.5011   3.5305   3.5546   3.5697   3.6115   3.6154   3.6297
  3.6497   3.6561   3.6633   3.6952   3.7026   3.7148   3.7483   3.7991
  3.8648   3.8842   3.9147   3.9581   4.0304   4.0469   4.0691   4.1141
  4.1370   4.1634   4.2295   4.2412   4.2990   4.3204   4.3458   4.3996
  4.4212   4.4590   4.4909   4.5253   4.6968   4.7401   4.7763   4.8350
  4.8547   4.8856   4.9508   4.9554   5.0415   5.1074   5.1435   5.1668
  5.2370   5.3135   5.3226   5.3484   5.3576   5.3641   5.4190   5.4398
  5.4700   5.5133   5.5782   5.5904   5.6178   5.6287   5.6616   5.7142
  5.7451   5.7477   5.8404   5.8870   5.9612   6.0092   6.0145   6.0738
  6.1110   6.1909   6.2968   6.3009   6.3488   6.3570   6.4689   6.5303
  6.6290   6.6560   6.7336   6.7597   6.8082   6.8648   6.8956   6.9799
  7.0056   7.0894   7.1701   7.3156   7.4036   7.4565   7.5153   7.6359
  7.7250  14.8777  23.3620  23.6192  23.9012  44.2237  44.3635  44.5595
 --------------------------------------------------------------
 
          Ground-State Mulliken Net Atomic Charges

     Atom                 Charge (a.u.)
  ----------------------------------------
      1 O                    -0.803242
      2 C                     0.489103
      3 O                    -0.291773
      4 O                    -0.814752
      5 Li                    0.858052
      6 C                     0.335769
      7 C                    -1.188320
      8 H                     0.100797
      9 H                     0.065955
     10 H                     0.148629
     11 H                     0.099781
  ----------------------------------------
  Sum of atomic charges =    -1.000000

  Building new vdw surfaces
         Merz-Kollman RESP Net Atomic Charges

     Atom                 Charge (a.u.)
  ----------------------------------------
      1 O                    -0.756041
      2 C                     0.706015
      3 O                    -0.543123
      4 O                    -0.756041
      5 Li                    0.814731
      6 C                     0.698912
      7 C                    -1.732549
      8 H                    -0.032345
      9 H                    -0.032345
     10 H                     0.316394
     11 H                     0.316394
  ----------------------------------------
  Sum of atomic charges =    -1.000000

  Related Dipole Moment =    10.9835 (X -9.4618 Y -3.3257 Z  4.4778)

 -----------------------------------------------------------------
                    Cartesian Multipole Moments
 -----------------------------------------------------------------
    Charge (ESU x 10^10)
                -4.8032
    Dipole Moment (Debye)
         X      -9.6644      Y      -3.2874      Z       4.6593
       Tot      11.2213
    Quadrupole Moments (Debye-Ang)
        XX     -42.2814     XY     -12.8932     YY     -49.6254
        XZ     -10.5535     YZ       0.7372     ZZ     -46.4228
    Octopole Moments (Debye-Ang^2)
       XXX    -130.4773    XXY     -17.0840    XYY     -28.6820
       YYY     -26.1751    XXZ      30.8489    XYZ       2.5281
       YYZ       7.3985    XZZ     -20.3369    YZZ      -4.5074
       ZZZ       8.5428
    Hexadecapole Moments (Debye-Ang^3)
      XXXX    -663.5009   XXXY    -150.6075   XXYY    -167.9012
      XYYY    -102.9054   YYYY    -200.6667   XXXZ     -88.0761
      XXYZ       0.6439   XYYZ       8.1671   YYYZ      -0.5177
      XXZZ    -123.6791   XYZZ     -33.1982   YYZZ     -60.2212
      XZZZ       4.4536   YZZZ      -6.8508   ZZZZ    -169.4853
 -----------------------------------------------------------------
 Calculating analytic gradient of the SCF energy
 Gradient of CDS energy
            1           2           3           4           5           6
    1  -0.0001151  -0.0000031   0.0007498  -0.0005304  -0.0000346   0.0002664
    2   0.0001033  -0.0005148   0.0002497   0.0001007  -0.0000065  -0.0013768
    3   0.0001464  -0.0002892   0.0000519   0.0001987   0.0000219   0.0001616
            7           8           9          10          11
    1   0.0005673  -0.0004280  -0.0002897  -0.0001710  -0.0000116
    2   0.0014608   0.0002751   0.0001151  -0.0001916  -0.0002150
    3  -0.0000409  -0.0000461  -0.0001589   0.0001222  -0.0001676
 Gradient of SCF Energy
            1           2           3           4           5           6
    1   0.0025202   0.0226297  -0.0397056   0.0082750  -0.0114484   0.0567591
    2   0.0004200   0.0165828  -0.0009380   0.0000568  -0.0004878  -0.0610458
    3  -0.0055762  -0.0139848  -0.0020777   0.0000389   0.0055780   0.0303907
            7           8           9          10          11
    1   0.0881914   0.0006012  -0.0210452  -0.0775858  -0.0291916
    2   0.0366608   0.0117009   0.0243561  -0.0040426  -0.0232633
    3   0.0423592  -0.0317772   0.0249583   0.0268203  -0.0767295
 Max gradient component =       8.819E-02
 RMS gradient           =       3.414E-02
 Computing fast CPCM-SWIG gradient
 Updating gradient with PCM contributions...
 -- total gradient after adding PCM contribution --
---------------------------------------------------
  Atom         X              Y              Z     
---------------------------------------------------
   1      -0.000080      -0.000037       0.000145
   2       0.000243       0.000098      -0.000226
   3      -0.000400      -0.000253      -0.000017
   4      -0.000130       0.000030       0.000059
   5       0.000039      -0.000020      -0.000042
   6       0.000491       0.000268       0.000237
   7      -0.000178      -0.000097      -0.000107
   8       0.000009       0.000019      -0.000049
   9      -0.000042       0.000008      -0.000032
  10       0.000043      -0.000017       0.000049
  11       0.000005      -0.000001      -0.000016
---------------------------------------------------
 Number of fixed atoms: 0
 Gradient time:  CPU 320.20 s  wall 14.53 s
 ######################################################
 ######################################################
 # Starting finite difference calculation for IDERIV  #
 Finite diff step size:  1.88973e-03 a.u.
 ----------------------------------------------------------------
             Standard Nuclear Orientation (Angstroms)
    I     Atom           X                Y                Z
 ----------------------------------------------------------------
    1      O      -0.6466449777     0.0451305667     1.1759139822
    2      C      -0.6654557126    -0.2666753180    -0.0616222150
    3      O       0.4346119692    -0.5211131676    -0.7333803419
    4      O      -1.7781040451    -0.3548452790    -0.6856962061
    5      Li     -2.4968088537     0.1498919248     0.9551905439
    6      C       1.8207509203    -0.1583562663    -0.0393154973
    7      C       2.2240249086     1.2262262684    -0.1247135739
    8      H       1.6582521617    -0.5527417940     0.9645956636
    9      H       2.4399260016    -0.8503729336    -0.6161557163
   10      H       3.0396967041     1.4752110615    -0.8042558204
   11      H       2.1736930080     1.8319287364     0.7806303305
 ----------------------------------------------------------------
 Nuclear Repulsion Energy =         252.13343617 hartrees
 There are       25 alpha and       25 beta electrons
 Discretize the solute cavity surface with Lebedev spheres
	Using 110 Lebedev grid points for each H atom
	Using 194 Lebedev grid points for other atoms
	Atomic van der Waals radii will be scaled by 1.20
 Remove points where switching function is < 1.0e-08
 Keep 818 surface tesserae and discard 980 interior tesserae
 Molecular Surface Area = 158.132 Angst**2

                       Distance Matrix (Angstroms)
             O (  1)   C (  2)   O (  3)   O (  4)   Li(  5)   C (  6)
   C (  2)  1.276351
   O (  3)  2.266088  1.313829
   O (  4)  2.214898  1.278761  2.219466
   Li(  5)  1.866226  2.135718  3.448876  1.861130
   C (  6)  2.757940  2.488665  1.592074  3.661717  4.441327
   C (  7)  3.365615  3.252973  2.574037  4.339530  4.960943  1.444642
   H (  8)  2.390535  2.556282  2.093184  3.817220  4.214062  1.090772
   H (  9)  3.679723  3.208053  2.035544  4.247607  5.276458  1.093165
   H ( 10)  4.422139  4.160989  3.282804  5.155033  5.958609  2.177040
   H ( 11)  3.362024  3.629641  3.294456  4.748557  4.967223  2.181310
             C (  7)   H (  8)   H (  9)   H ( 10)
   H (  8)  2.161347
   H (  9)  2.144853  1.788400
   H ( 10)  1.090455  3.024867  2.409035
   H ( 11)  1.090439  2.446666  3.035891  1.840944
 
 Requested basis set is def2-TZVPPD
 There are 119 shells and 321 basis functions
 A cutoff of  1.0D-14 yielded   6765 shell pairs
 There are     49983 function pairs (     63653 Cartesian)
 Smallest overlap matrix eigenvalue = 1.11E-05
 Guess MOs from SCF MO coefficient file

 -----------------------------------------------------------------------
  General SCF calculation program by
  Eric Jon Sundstrom, Paul Horn, Yuezhi Mao, Dmitri Zuev, Alec White,
  David Stuck, Shaama M.S., Shane Yost, Joonho Lee, David Small,
  Daniel Levine, Susi Lehtola, Hugh Burton, Evgeny Epifanovsky
 -----------------------------------------------------------------------
 Exchange:     0.1670 Hartree-Fock + 1.0000 wB97X-V + LR-HF
 Correlation:  1.0000 wB97X-V
 Using SG-3 standard quadrature grid
 Nonlocal Correlation:  VV10 with C = 0.0100 and b = 6.00 and scale = 1.00000
 Grid used for NLC:  SG-1 standard quadrature
 
 Citation of the SMD model:
 Marenich, A.V.; Cramer, C.J.; Truhlar, D.G.
 J. Phys. Chem. B 2009, 113, 6378-6396.
 iSolventCode=           0
 Solvent: other                                                           
 
 vradii
            1           2           3           4           5           6
    1   2.2940000   1.8500000   2.2940000   2.2940000   2.1476001   1.8500000
            7           8           9          10          11
    1   1.8500000   1.2000000   1.2000000   1.2000000   1.2000000
 using 32 threads for integral computing
 -------------------------------------------------------
 OpenMP Integral computing Module                
 Release: version 1.0, May 2013, Q-Chem Inc. Pittsburgh 
 -------------------------------------------------------
 using 32 threads for integral computing
 -------------------------------------------------------
 OpenMP Integral computing Module                
 Release: version 1.0, May 2013, Q-Chem Inc. Pittsburgh 
 -------------------------------------------------------
 -------------------------------------------------------
 OpenMP BLAS3 based DFT computing Module                
 Release: version 1.0, May 2013, Q-Chem Inc. Pittsburgh 
 -------------------------------------------------------
 -------------------------------------------------------
 OpenMP BLAS3 based DFT computing Module                
 Release: version 1.0, May 2013, Q-Chem Inc. Pittsburgh 
 -------------------------------------------------------
 -------------------------------------------------------
 OpenMP BLAS3 based DFT computing Module                
 Release: version 1.0, May 2013, Q-Chem Inc. Pittsburgh 
 -------------------------------------------------------
 A restricted SCF calculation will be
 performed using Roothaan-Hall, DIIS
 SCF converges when DIIS error is below 1.0e-08
 ---------------------------------------
  Cycle       Energy         DIIS error
 ---------------------------------------
    1    -350.0973437851      5.38e-06  Roothaan Step
 ---------------------------------------
  Cycle       Energy         DIIS error
 ---------------------------------------
    1    -350.0971271402      1.42e-06  
    2    -350.0971271515      1.42e-06  
    3    -350.0971271686      2.73e-07  
    4    -350.0971271697      5.22e-08  
    5    -350.0971271698      2.03e-08  
    6    -350.0971271698      6.62e-09  Convergence criterion met
 ---------------------------------------
 SCF time:   CPU 740.94s  wall 27.00s 
(3)  G-ENP(liq) elect-nuc-pol free energy of system     -350.097127170 a.u.
(4)  G-CDS(liq) cavity-dispersion-solvent structure 
     free energy                                               -1.7247 kcal/mol
(6)  G-S(liq) free energy of system                     -350.099875717 a.u.
 SCF   energy in the final basis set =     -350.0971271698
 Total energy in the final basis set =     -350.0998757169
 
 --------------------------------------------------------------
 
                    Orbital Energies (a.u.)
 --------------------------------------------------------------
 
 Alpha MOs
 -- Occupied --
-19.1792 -19.1410 -19.1380 -10.3750 -10.2697 -10.1646  -2.0663  -1.1877
 -1.0803  -1.0481  -0.8246  -0.6811  -0.5999  -0.5581  -0.5451  -0.5337
 -0.4991  -0.4594  -0.4248  -0.3980  -0.3818  -0.3592  -0.3482  -0.3366
 -0.2208
 -- Virtual --
  0.0390   0.0551   0.0560   0.0645   0.1009   0.1118   0.1206   0.1274
  0.1431   0.1472   0.1524   0.1547   0.1625   0.1689   0.1735   0.1799
  0.1890   0.1986   0.2098   0.2214   0.2249   0.2376   0.2513   0.2610
  0.2668   0.2768   0.2919   0.3018   0.3063   0.3124   0.3298   0.3345
  0.3483   0.3600   0.3659   0.3743   0.3755   0.3872   0.4005   0.4055
  0.4099   0.4169   0.4301   0.4314   0.4372   0.4423   0.4431   0.4519
  0.4660   0.4755   0.4797   0.4879   0.4959   0.4984   0.5054   0.5174
  0.5237   0.5336   0.5403   0.5462   0.5497   0.5685   0.5750   0.5881
  0.5917   0.6016   0.6084   0.6165   0.6222   0.6423   0.6495   0.6722
  0.6803   0.6925   0.7049   0.7140   0.7203   0.7330   0.7428   0.7583
  0.7690   0.7926   0.7958   0.8135   0.8194   0.8274   0.8404   0.8532
  0.8613   0.8681   0.8737   0.8969   0.9074   0.9187   0.9249   0.9361
  0.9826   0.9890   1.0124   1.0284   1.0302   1.0453   1.0659   1.0761
  1.0987   1.1115   1.1297   1.1582   1.1897   1.2166   1.2252   1.2476
  1.2678   1.2704   1.2909   1.3021   1.3162   1.3363   1.3509   1.3670
  1.3766   1.3964   1.4289   1.4614   1.4914   1.4942   1.5201   1.5638
  1.5659   1.5907   1.6169   1.6566   1.6757   1.7399   1.7547   1.8014
  1.8145   1.8621   1.8892   1.9227   1.9289   1.9558   1.9709   1.9799
  1.9903   2.0140   2.0596   2.0744   2.1240   2.1365   2.1968   2.2153
  2.2449   2.3099   2.3227   2.3635   2.3967   2.4437   2.4691   2.4905
  2.5253   2.5556   2.6295   2.6475   2.7556   2.8173   2.8428   2.8797
  2.9104   2.9475   2.9571   2.9920   3.0112   3.0231   3.0559   3.0799
  3.0965   3.1228   3.1931   3.2390   3.2443   3.2749   3.3000   3.3207
  3.3455   3.3562   3.3884   3.3963   3.4070   3.4221   3.4370   3.4547
  3.4886   3.5012   3.5305   3.5546   3.5695   3.6114   3.6156   3.6298
  3.6497   3.6560   3.6633   3.6952   3.7025   3.7148   3.7484   3.7991
  3.8648   3.8842   3.9148   3.9582   4.0304   4.0469   4.0691   4.1142
  4.1369   4.1634   4.2295   4.2411   4.2991   4.3204   4.3458   4.3996
  4.4212   4.4590   4.4910   4.5253   4.6970   4.7401   4.7762   4.8351
  4.8548   4.8856   4.9507   4.9554   5.0415   5.1074   5.1435   5.1668
  5.2370   5.3135   5.3226   5.3484   5.3577   5.3641   5.4190   5.4399
  5.4701   5.5132   5.5783   5.5904   5.6179   5.6287   5.6615   5.7145
  5.7452   5.7477   5.8404   5.8870   5.9606   6.0093   6.0146   6.0738
  6.1108   6.1910   6.2967   6.3010   6.3486   6.3567   6.4689   6.5304
  6.6289   6.6560   6.7336   6.7593   6.8083   6.8647   6.8957   6.9797
  7.0057   7.0894   7.1702   7.3154   7.4036   7.4565   7.5154   7.6359
  7.7249  14.8769  23.3622  23.6193  23.9012  44.2237  44.3635  44.5596
 --------------------------------------------------------------
 
          Ground-State Mulliken Net Atomic Charges

     Atom                 Charge (a.u.)
  ----------------------------------------
      1 O                    -0.803188
      2 C                     0.489029
      3 O                    -0.291941
      4 O                    -0.814604
      5 Li                    0.858113
      6 C                     0.335836
      7 C                    -1.188304
      8 H                     0.100719
      9 H                     0.066004
     10 H                     0.148635
     11 H                     0.099700
  ----------------------------------------
  Sum of atomic charges =    -1.000000

  Building new vdw surfaces
         Merz-Kollman RESP Net Atomic Charges

     Atom                 Charge (a.u.)
  ----------------------------------------
      1 O                    -0.755695
      2 C                     0.705632
      3 O                    -0.543232
      4 O                    -0.755695
      5 Li                    0.814543
      6 C                     0.699035
      7 C                    -1.732624
      8 H                    -0.032372
      9 H                    -0.032372
     10 H                     0.316390
     11 H                     0.316390
  ----------------------------------------
  Sum of atomic charges =    -1.000000

  Related Dipole Moment =    10.9879 (X -9.4666 Y -3.3260 Z  4.4783)

 -----------------------------------------------------------------
                    Cartesian Multipole Moments
 -----------------------------------------------------------------
    Charge (ESU x 10^10)
                -4.8032
    Dipole Moment (Debye)
         X      -9.6695      Y      -3.2877      Z       4.6598
       Tot      11.2260
    Quadrupole Moments (Debye-Ang)
        XX     -42.2786     XY     -12.8934     YY     -49.6271
        XZ     -10.5547     YZ       0.7375     ZZ     -46.4225
    Octopole Moments (Debye-Ang^2)
       XXX    -130.5167    XXY     -17.0870    XYY     -28.6921
       YYY     -26.1780    XXZ      30.8520    XYZ       2.5275
       YYZ       7.3990    XZZ     -20.3504    YZZ      -4.5081
       ZZZ       8.5433
    Hexadecapole Moments (Debye-Ang^3)
      XXXX    -663.4716   XXXY    -150.6139   XXYY    -167.9015
      XYYY    -102.9105   YYYY    -200.6780   XXXZ     -88.0939
      XXYZ       0.6455   XYYZ       8.1629   YYYZ      -0.5163
      XXZZ    -123.6670   XYZZ     -33.1977   YYZZ     -60.2236
      XZZZ       4.4385   YZZZ      -6.8504   ZZZZ    -169.4859
 -----------------------------------------------------------------
 Calculating analytic gradient of the SCF energy
 Gradient of CDS energy
            1           2           3           4           5           6
    1  -0.0001143  -0.0000036   0.0007498  -0.0005304  -0.0000347   0.0002665
    2   0.0001034  -0.0005148   0.0002497   0.0001007  -0.0000065  -0.0013768
    3   0.0001466  -0.0002894   0.0000519   0.0001987   0.0000218   0.0001615
            7           8           9          10          11
    1   0.0005671  -0.0004281  -0.0002897  -0.0001710  -0.0000116
    2   0.0014608   0.0002751   0.0001151  -0.0001916  -0.0002150
    3  -0.0000408  -0.0000460  -0.0001589   0.0001222  -0.0001676
 Gradient of SCF Energy
            1           2           3           4           5           6
    1   0.0027739   0.0224473  -0.0397155   0.0082698  -0.0115157   0.0567513
    2   0.0004281   0.0165689  -0.0009072   0.0000352  -0.0004875  -0.0610506
    3  -0.0055029  -0.0140367  -0.0020052  -0.0000576   0.0055600   0.0304043
            7           8           9          10          11
    1   0.0882311   0.0006082  -0.0210420  -0.0775955  -0.0292129
    2   0.0366553   0.0117027   0.0243612  -0.0040426  -0.0232635
    3   0.0423662  -0.0317752   0.0249692   0.0268265  -0.0767485
 Max gradient component =       8.823E-02
 RMS gradient           =       3.414E-02
 Computing fast CPCM-SWIG gradient
 Updating gradient with PCM contributions...
 -- total gradient after adding PCM contribution --
---------------------------------------------------
  Atom         X              Y              Z     
---------------------------------------------------
   1       0.000235      -0.000037       0.000212
   2       0.000026       0.000092      -0.000265
   3      -0.000427      -0.000224       0.000085
   4      -0.000138       0.000002      -0.000071
   5      -0.000030      -0.000019      -0.000062
   6       0.000505       0.000283       0.000244
   7      -0.000180      -0.000104      -0.000105
   8       0.000005       0.000018      -0.000043
   9      -0.000043       0.000007      -0.000028
  10       0.000041      -0.000017       0.000049
  11       0.000004      -0.000001      -0.000016
---------------------------------------------------
 Number of fixed atoms: 0
 Gradient time:  CPU 319.22 s  wall 14.40 s
 ----------------------------------------------------------------
             Standard Nuclear Orientation (Angstroms)
    I     Atom           X                Y                Z
 ----------------------------------------------------------------
    1      O      -0.6486449777     0.0451305667     1.1759139822
    2      C      -0.6654557126    -0.2666753180    -0.0616222150
    3      O       0.4346119692    -0.5211131676    -0.7333803419
    4      O      -1.7781040451    -0.3548452790    -0.6856962061
    5      Li     -2.4968088537     0.1498919248     0.9551905439
    6      C       1.8207509203    -0.1583562663    -0.0393154973
    7      C       2.2240249086     1.2262262684    -0.1247135739
    8      H       1.6582521617    -0.5527417940     0.9645956636
    9      H       2.4399260016    -0.8503729336    -0.6161557163
   10      H       3.0396967041     1.4752110615    -0.8042558204
   11      H       2.1736930080     1.8319287364     0.7806303305
 ----------------------------------------------------------------
 Nuclear Repulsion Energy =         252.12912936 hartrees
 There are       25 alpha and       25 beta electrons
 Discretize the solute cavity surface with Lebedev spheres
	Using 110 Lebedev grid points for each H atom
	Using 194 Lebedev grid points for other atoms
	Atomic van der Waals radii will be scaled by 1.20
 Remove points where switching function is < 1.0e-08
 Keep 818 surface tesserae and discard 980 interior tesserae
 Molecular Surface Area = 158.133 Angst**2

                       Distance Matrix (Angstroms)
             O (  1)   C (  2)   O (  3)   O (  4)   Li(  5)   C (  6)
   C (  2)  1.276323
   O (  3)  2.267043  1.313829
   O (  4)  2.213877  1.278761  2.219466
   Li(  5)  1.864243  2.135718  3.448876  1.861130
   C (  6)  2.759729  2.488665  1.592074  3.661717  4.441327
   C (  7)  3.367321  3.252973  2.574037  4.339530  4.960943  1.444642
   H (  8)  2.392463  2.556282  2.093184  3.817220  4.214062  1.090772
   H (  9)  3.681401  3.208053  2.035544  4.247607  5.276458  1.093165
   H ( 10)  4.423807  4.160989  3.282804  5.155033  5.958609  2.177040
   H ( 11)  3.363702  3.629641  3.294456  4.748557  4.967223  2.181310
             C (  7)   H (  8)   H (  9)   H ( 10)
   H (  8)  2.161347
   H (  9)  2.144853  1.788400
   H ( 10)  1.090455  3.024867  2.409035
   H ( 11)  1.090439  2.446666  3.035891  1.840944
 
 Requested basis set is def2-TZVPPD
 There are 119 shells and 321 basis functions
 A cutoff of  1.0D-14 yielded   6765 shell pairs
 There are     49983 function pairs (     63653 Cartesian)
 Smallest overlap matrix eigenvalue = 1.11E-05
 Guess MOs from SCF MO coefficient file

 -----------------------------------------------------------------------
  General SCF calculation program by
  Eric Jon Sundstrom, Paul Horn, Yuezhi Mao, Dmitri Zuev, Alec White,
  David Stuck, Shaama M.S., Shane Yost, Joonho Lee, David Small,
  Daniel Levine, Susi Lehtola, Hugh Burton, Evgeny Epifanovsky
 -----------------------------------------------------------------------
 Exchange:     0.1670 Hartree-Fock + 1.0000 wB97X-V + LR-HF
 Correlation:  1.0000 wB97X-V
 Using SG-3 standard quadrature grid
 Nonlocal Correlation:  VV10 with C = 0.0100 and b = 6.00 and scale = 1.00000
 Grid used for NLC:  SG-1 standard quadrature
 
 Citation of the SMD model:
 Marenich, A.V.; Cramer, C.J.; Truhlar, D.G.
 J. Phys. Chem. B 2009, 113, 6378-6396.
 iSolventCode=           0
 Solvent: other                                                           
 
 vradii
            1           2           3           4           5           6
    1   2.2940000   1.8500000   2.2940000   2.2940000   2.1476001   1.8500000
            7           8           9          10          11
    1   1.8500000   1.2000000   1.2000000   1.2000000   1.2000000
 using 32 threads for integral computing
 -------------------------------------------------------
 OpenMP Integral computing Module                
 Release: version 1.0, May 2013, Q-Chem Inc. Pittsburgh 
 -------------------------------------------------------
 using 32 threads for integral computing
 -------------------------------------------------------
 OpenMP Integral computing Module                
 Release: version 1.0, May 2013, Q-Chem Inc. Pittsburgh 
 -------------------------------------------------------
 -------------------------------------------------------
 OpenMP BLAS3 based DFT computing Module                
 Release: version 1.0, May 2013, Q-Chem Inc. Pittsburgh 
 -------------------------------------------------------
 -------------------------------------------------------
 OpenMP BLAS3 based DFT computing Module                
 Release: version 1.0, May 2013, Q-Chem Inc. Pittsburgh 
 -------------------------------------------------------
 -------------------------------------------------------
 OpenMP BLAS3 based DFT computing Module                
 Release: version 1.0, May 2013, Q-Chem Inc. Pittsburgh 
 -------------------------------------------------------
 A restricted SCF calculation will be
 performed using Roothaan-Hall, DIIS
 SCF converges when DIIS error is below 1.0e-08
 ---------------------------------------
  Cycle       Energy         DIIS error
 ---------------------------------------
    1    -350.0966917483      1.08e-05  Roothaan Step
 ---------------------------------------
  Cycle       Energy         DIIS error
 ---------------------------------------
    1    -350.0971271830      2.83e-06  
    2    -350.0971272281      2.84e-06  
    3    -350.0971272960      5.48e-07  
    4    -350.0971273006      1.04e-07  
    5    -350.0971273008      4.04e-08  
    6    -350.0971273008      1.32e-08  
    7    -350.0971273008      5.25e-09  Convergence criterion met
 ---------------------------------------
 SCF time:   CPU 850.43s  wall 31.00s 
(3)  G-ENP(liq) elect-nuc-pol free energy of system     -350.097127301 a.u.
(4)  G-CDS(liq) cavity-dispersion-solvent structure 
     free energy                                               -1.7245 kcal/mol
(6)  G-S(liq) free energy of system                     -350.099875413 a.u.
 SCF   energy in the final basis set =     -350.0971273008
 Total energy in the final basis set =     -350.0998754128
 
 --------------------------------------------------------------
 
                    Orbital Energies (a.u.)
 --------------------------------------------------------------
 
 Alpha MOs
 -- Occupied --
-19.1793 -19.1410 -19.1379 -10.3750 -10.2698 -10.1646  -2.0662  -1.1878
 -1.0804  -1.0480  -0.8246  -0.6812  -0.6000  -0.5581  -0.5451  -0.5338
 -0.4991  -0.4594  -0.4248  -0.3981  -0.3819  -0.3593  -0.3482  -0.3366
 -0.2209
 -- Virtual --
  0.0390   0.0552   0.0560   0.0645   0.1008   0.1118   0.1206   0.1274
  0.1431   0.1472   0.1524   0.1547   0.1625   0.1689   0.1734   0.1799
  0.1890   0.1986   0.2098   0.2214   0.2249   0.2376   0.2513   0.2610
  0.2668   0.2768   0.2918   0.3018   0.3062   0.3123   0.3298   0.3345
  0.3483   0.3599   0.3659   0.3743   0.3755   0.3872   0.4006   0.4055
  0.4099   0.4169   0.4301   0.4315   0.4371   0.4423   0.4431   0.4519
  0.4659   0.4755   0.4797   0.4879   0.4959   0.4984   0.5054   0.5174
  0.5237   0.5336   0.5403   0.5462   0.5498   0.5685   0.5750   0.5881
  0.5917   0.6016   0.6085   0.6165   0.6222   0.6423   0.6495   0.6722
  0.6804   0.6925   0.7049   0.7140   0.7203   0.7331   0.7428   0.7583
  0.7689   0.7926   0.7957   0.8135   0.8193   0.8274   0.8404   0.8532
  0.8613   0.8682   0.8737   0.8970   0.9075   0.9187   0.9250   0.9362
  0.9826   0.9891   1.0123   1.0284   1.0303   1.0453   1.0658   1.0761
  1.0987   1.1115   1.1297   1.1582   1.1899   1.2165   1.2251   1.2476
  1.2677   1.2705   1.2908   1.3020   1.3162   1.3363   1.3508   1.3669
  1.3767   1.3964   1.4289   1.4614   1.4914   1.4942   1.5200   1.5638
  1.5658   1.5907   1.6166   1.6566   1.6756   1.7399   1.7547   1.8014
  1.8145   1.8621   1.8892   1.9227   1.9289   1.9557   1.9711   1.9797
  1.9907   2.0138   2.0594   2.0744   2.1239   2.1371   2.1966   2.2154
  2.2449   2.3101   2.3224   2.3636   2.3966   2.4437   2.4690   2.4905
  2.5251   2.5555   2.6295   2.6474   2.7557   2.8173   2.8427   2.8797
  2.9103   2.9475   2.9571   2.9920   3.0112   3.0231   3.0558   3.0798
  3.0964   3.1228   3.1930   3.2389   3.2441   3.2748   3.3001   3.3206
  3.3454   3.3562   3.3884   3.3963   3.4067   3.4221   3.4369   3.4546
  3.4884   3.5011   3.5304   3.5546   3.5698   3.6115   3.6153   3.6296
  3.6497   3.6561   3.6633   3.6953   3.7026   3.7148   3.7482   3.7991
  3.8648   3.8841   3.9147   3.9581   4.0304   4.0468   4.0690   4.1141
  4.1370   4.1634   4.2295   4.2412   4.2990   4.3204   4.3458   4.3995
  4.4212   4.4589   4.4909   4.5253   4.6967   4.7400   4.7764   4.8349
  4.8546   4.8856   4.9508   4.9554   5.0415   5.1074   5.1435   5.1668
  5.2370   5.3136   5.3225   5.3483   5.3576   5.3640   5.4190   5.4397
  5.4700   5.5134   5.5782   5.5904   5.6177   5.6287   5.6617   5.7139
  5.7450   5.7476   5.8403   5.8870   5.9617   6.0092   6.0145   6.0737
  6.1113   6.1909   6.2968   6.3007   6.3491   6.3572   6.4690   6.5301
  6.6291   6.6561   6.7335   6.7601   6.8081   6.8649   6.8956   6.9800
  7.0056   7.0894   7.1699   7.3157   7.4035   7.4565   7.5152   7.6360
  7.7250  14.8785  23.3619  23.6192  23.9012  44.2237  44.3636  44.5595
 --------------------------------------------------------------
 
          Ground-State Mulliken Net Atomic Charges

     Atom                 Charge (a.u.)
  ----------------------------------------
      1 O                    -0.803295
      2 C                     0.489177
      3 O                    -0.291604
      4 O                    -0.814900
      5 Li                    0.857992
      6 C                     0.335701
      7 C                    -1.188336
      8 H                     0.100875
      9 H                     0.065906
     10 H                     0.148624
     11 H                     0.099861
  ----------------------------------------
  Sum of atomic charges =    -1.000000

  Building new vdw surfaces
         Merz-Kollman RESP Net Atomic Charges

     Atom                 Charge (a.u.)
  ----------------------------------------
      1 O                    -0.756388
      2 C                     0.706400
      3 O                    -0.543016
      4 O                    -0.756388
      5 Li                    0.814919
      6 C                     0.698790
      7 C                    -1.732476
      8 H                    -0.032318
      9 H                    -0.032318
     10 H                     0.316398
     11 H                     0.316398
  ----------------------------------------
  Sum of atomic charges =    -1.000000

  Related Dipole Moment =    10.9791 (X -9.4570 Y -3.3254 Z  4.4774)

 -----------------------------------------------------------------
                    Cartesian Multipole Moments
 -----------------------------------------------------------------
    Charge (ESU x 10^10)
                -4.8032
    Dipole Moment (Debye)
         X      -9.6593      Y      -3.2872      Z       4.6588
       Tot      11.2166
    Quadrupole Moments (Debye-Ang)
        XX     -42.2843     XY     -12.8931     YY     -49.6236
        XZ     -10.5523     YZ       0.7369     ZZ     -46.4230
    Octopole Moments (Debye-Ang^2)
       XXX    -130.4378    XXY     -17.0810    XYY     -28.6719
       YYY     -26.1722    XXZ      30.8458    XYZ       2.5287
       YYZ       7.3981    XZZ     -20.3235    YZZ      -4.5068
       ZZZ       8.5423
    Hexadecapole Moments (Debye-Ang^3)
      XXXX    -663.5300   XXXY    -150.6011   XXYY    -167.9010
      XYYY    -102.9003   YYYY    -200.6554   XXXZ     -88.0582
      XXYZ       0.6423   XYYZ       8.1714   YYYZ      -0.5190
      XXZZ    -123.6912   XYZZ     -33.1988   YYZZ     -60.2189
      XZZZ       4.4688   YZZZ      -6.8513   ZZZZ    -169.4848
 -----------------------------------------------------------------
 Calculating analytic gradient of the SCF energy
 Gradient of CDS energy
            1           2           3           4           5           6
    1  -0.0001160  -0.0000026   0.0007498  -0.0005304  -0.0000344   0.0002663
    2   0.0001033  -0.0005147   0.0002497   0.0001007  -0.0000065  -0.0013768
    3   0.0001461  -0.0002890   0.0000519   0.0001987   0.0000221   0.0001617
            7           8           9          10          11
    1   0.0005674  -0.0004279  -0.0002897  -0.0001710  -0.0000116
    2   0.0014608   0.0002751   0.0001151  -0.0001916  -0.0002150
    3  -0.0000410  -0.0000462  -0.0001589   0.0001222  -0.0001676
 Gradient of SCF Energy
            1           2           3           4           5           6
    1   0.0022662   0.0228121  -0.0396958   0.0082804  -0.0113807   0.0567666
    2   0.0004120   0.0165966  -0.0009688   0.0000784  -0.0004881  -0.0610406
    3  -0.0056494  -0.0139333  -0.0021500   0.0001356   0.0055960   0.0303769
            7           8           9          10          11
    1   0.0881507   0.0005941  -0.0210486  -0.0775750  -0.0291699
    2   0.0366667   0.0116992   0.0243509  -0.0040431  -0.0232632
    3   0.0423516  -0.0317791   0.0249473   0.0268146  -0.0767102
 Max gradient component =       8.815E-02
 RMS gradient           =       3.414E-02
 Computing fast CPCM-SWIG gradient
 Updating gradient with PCM contributions...
 -- total gradient after adding PCM contribution --
---------------------------------------------------
  Atom         X              Y              Z     
---------------------------------------------------
   1      -0.000396      -0.000036       0.000078
   2       0.000460       0.000104      -0.000188
   3      -0.000374      -0.000282      -0.000119
   4      -0.000123       0.000059       0.000189
   5       0.000108      -0.000020      -0.000023
   6       0.000477       0.000253       0.000231
   7      -0.000176      -0.000090      -0.000109
   8       0.000013       0.000021      -0.000056
   9      -0.000040       0.000009      -0.000035
  10       0.000045      -0.000017       0.000049
  11       0.000005      -0.000000      -0.000016
---------------------------------------------------
 Number of fixed atoms: 0
 Gradient time:  CPU 318.03 s  wall 14.65 s
 ----------------------------------------------------------------
             Standard Nuclear Orientation (Angstroms)
    I     Atom           X                Y                Z
 ----------------------------------------------------------------
    1      O      -0.6476449777     0.0461305667     1.1759139822
    2      C      -0.6654557126    -0.2666753180    -0.0616222150
    3      O       0.4346119692    -0.5211131676    -0.7333803419
    4      O      -1.7781040451    -0.3548452790    -0.6856962061
    5      Li     -2.4968088537     0.1498919248     0.9551905439
    6      C       1.8207509203    -0.1583562663    -0.0393154973
    7      C       2.2240249086     1.2262262684    -0.1247135739
    8      H       1.6582521617    -0.5527417940     0.9645956636
    9      H       2.4399260016    -0.8503729336    -0.6161557163
   10      H       3.0396967041     1.4752110615    -0.8042558204
   11      H       2.1736930080     1.8319287364     0.7806303305
 ----------------------------------------------------------------
 Nuclear Repulsion Energy =         252.12532588 hartrees
 There are       25 alpha and       25 beta electrons
 Discretize the solute cavity surface with Lebedev spheres
	Using 110 Lebedev grid points for each H atom
	Using 194 Lebedev grid points for other atoms
	Atomic van der Waals radii will be scaled by 1.20
 Remove points where switching function is < 1.0e-08
 Keep 818 surface tesserae and discard 980 interior tesserae
 Molecular Surface Area = 158.135 Angst**2

                       Distance Matrix (Angstroms)
             O (  1)   C (  2)   O (  3)   O (  4)   Li(  5)   C (  6)
   C (  2)  1.276582
   O (  3)  2.266815  1.313829
   O (  4)  2.214568  1.278761  2.219466
   Li(  5)  1.865179  2.135718  3.448876  1.861130
   C (  6)  2.758908  2.488665  1.592074  3.661717  4.441327
   C (  7)  3.366117  3.252973  2.574037  4.339530  4.960943  1.444642
   H (  8)  2.391749  2.556282  2.093184  3.817220  4.214062  1.090772
   H (  9)  3.680805  3.208053  2.035544  4.247607  5.276458  1.093165
   H ( 10)  4.422650  4.160989  3.282804  5.155033  5.958609  2.177040
   H ( 11)  3.362331  3.629641  3.294456  4.748557  4.967223  2.181310
             C (  7)   H (  8)   H (  9)   H ( 10)
   H (  8)  2.161347
   H (  9)  2.144853  1.788400
   H ( 10)  1.090455  3.024867  2.409035
   H ( 11)  1.090439  2.446666  3.035891  1.840944
 
 Requested basis set is def2-TZVPPD
 There are 119 shells and 321 basis functions
 A cutoff of  1.0D-14 yielded   6765 shell pairs
 There are     49983 function pairs (     63653 Cartesian)
 Smallest overlap matrix eigenvalue = 1.11E-05
 Guess MOs from SCF MO coefficient file

 -----------------------------------------------------------------------
  General SCF calculation program by
  Eric Jon Sundstrom, Paul Horn, Yuezhi Mao, Dmitri Zuev, Alec White,
  David Stuck, Shaama M.S., Shane Yost, Joonho Lee, David Small,
  Daniel Levine, Susi Lehtola, Hugh Burton, Evgeny Epifanovsky
 -----------------------------------------------------------------------
 Exchange:     0.1670 Hartree-Fock + 1.0000 wB97X-V + LR-HF
 Correlation:  1.0000 wB97X-V
 Using SG-3 standard quadrature grid
 Nonlocal Correlation:  VV10 with C = 0.0100 and b = 6.00 and scale = 1.00000
 Grid used for NLC:  SG-1 standard quadrature
 
 Citation of the SMD model:
 Marenich, A.V.; Cramer, C.J.; Truhlar, D.G.
 J. Phys. Chem. B 2009, 113, 6378-6396.
 iSolventCode=           0
 Solvent: other                                                           
 
 vradii
            1           2           3           4           5           6
    1   2.2940000   1.8500000   2.2940000   2.2940000   2.1476001   1.8500000
            7           8           9          10          11
    1   1.8500000   1.2000000   1.2000000   1.2000000   1.2000000
 using 32 threads for integral computing
 -------------------------------------------------------
 OpenMP Integral computing Module                
 Release: version 1.0, May 2013, Q-Chem Inc. Pittsburgh 
 -------------------------------------------------------
 using 32 threads for integral computing
 -------------------------------------------------------
 OpenMP Integral computing Module                
 Release: version 1.0, May 2013, Q-Chem Inc. Pittsburgh 
 -------------------------------------------------------
 -------------------------------------------------------
 OpenMP BLAS3 based DFT computing Module                
 Release: version 1.0, May 2013, Q-Chem Inc. Pittsburgh 
 -------------------------------------------------------
 -------------------------------------------------------
 OpenMP BLAS3 based DFT computing Module                
 Release: version 1.0, May 2013, Q-Chem Inc. Pittsburgh 
 -------------------------------------------------------
 -------------------------------------------------------
 OpenMP BLAS3 based DFT computing Module                
 Release: version 1.0, May 2013, Q-Chem Inc. Pittsburgh 
 -------------------------------------------------------
 A restricted SCF calculation will be
 performed using Roothaan-Hall, DIIS
 SCF converges when DIIS error is below 1.0e-08
 ---------------------------------------
  Cycle       Energy         DIIS error
 ---------------------------------------
    1    -350.0973007200      7.74e-06  Roothaan Step
 ---------------------------------------
  Cycle       Energy         DIIS error
 ---------------------------------------
    1    -350.0971276042      1.90e-06  
    2    -350.0971276377      1.84e-06  
    3    -350.0971276669      4.17e-07  
    4    -350.0971276701      8.00e-08  
    5    -350.0971276703      2.77e-08  
    6    -350.0971276703      1.24e-08  
    7    -350.0971276703      5.43e-09  Convergence criterion met
 ---------------------------------------
 SCF time:   CPU 850.16s  wall 31.00s 
(3)  G-ENP(liq) elect-nuc-pol free energy of system     -350.097127670 a.u.
(4)  G-CDS(liq) cavity-dispersion-solvent structure 
     free energy                                               -1.7245 kcal/mol
(6)  G-S(liq) free energy of system                     -350.099875805 a.u.
 SCF   energy in the final basis set =     -350.0971276703
 Total energy in the final basis set =     -350.0998758055
 
 --------------------------------------------------------------
 
                    Orbital Energies (a.u.)
 --------------------------------------------------------------
 
 Alpha MOs
 -- Occupied --
-19.1793 -19.1410 -19.1380 -10.3750 -10.2698 -10.1646  -2.0662  -1.1877
 -1.0803  -1.0480  -0.8246  -0.6812  -0.5999  -0.5581  -0.5451  -0.5337
 -0.4991  -0.4594  -0.4248  -0.3980  -0.3819  -0.3592  -0.3482  -0.3366
 -0.2208
 -- Virtual --
  0.0390   0.0552   0.0560   0.0645   0.1008   0.1118   0.1206   0.1274
  0.1431   0.1472   0.1524   0.1547   0.1625   0.1689   0.1735   0.1799
  0.1890   0.1986   0.2098   0.2214   0.2249   0.2376   0.2513   0.2610
  0.2668   0.2768   0.2919   0.3018   0.3062   0.3124   0.3298   0.3345
  0.3483   0.3599   0.3659   0.3743   0.3755   0.3872   0.4005   0.4055
  0.4099   0.4169   0.4301   0.4315   0.4371   0.4423   0.4431   0.4519
  0.4660   0.4755   0.4797   0.4879   0.4959   0.4984   0.5054   0.5174
  0.5237   0.5336   0.5403   0.5462   0.5497   0.5685   0.5750   0.5881
  0.5916   0.6016   0.6084   0.6165   0.6221   0.6423   0.6495   0.6722
  0.6803   0.6925   0.7049   0.7140   0.7203   0.7331   0.7428   0.7583
  0.7689   0.7926   0.7957   0.8135   0.8193   0.8274   0.8404   0.8532
  0.8612   0.8682   0.8737   0.8970   0.9075   0.9187   0.9249   0.9362
  0.9826   0.9891   1.0124   1.0284   1.0302   1.0453   1.0659   1.0761
  1.0987   1.1115   1.1297   1.1582   1.1898   1.2165   1.2251   1.2476
  1.2677   1.2704   1.2909   1.3020   1.3161   1.3363   1.3509   1.3669
  1.3767   1.3964   1.4289   1.4614   1.4914   1.4942   1.5201   1.5638
  1.5658   1.5907   1.6167   1.6566   1.6756   1.7399   1.7547   1.8014
  1.8145   1.8621   1.8892   1.9227   1.9289   1.9558   1.9710   1.9797
  1.9905   2.0138   2.0595   2.0745   2.1239   2.1368   2.1966   2.2153
  2.2449   2.3099   2.3225   2.3636   2.3967   2.4437   2.4690   2.4904
  2.5252   2.5556   2.6295   2.6475   2.7556   2.8173   2.8428   2.8797
  2.9103   2.9475   2.9570   2.9919   3.0112   3.0231   3.0558   3.0798
  3.0964   3.1228   3.1930   3.2389   3.2442   3.2748   3.3000   3.3206
  3.3455   3.3562   3.3884   3.3963   3.4067   3.4221   3.4369   3.4547
  3.4885   3.5011   3.5304   3.5545   3.5696   3.6114   3.6154   3.6297
  3.6496   3.6561   3.6632   3.6951   3.7025   3.7148   3.7482   3.7990
  3.8648   3.8841   3.9147   3.9581   4.0304   4.0469   4.0691   4.1141
  4.1369   4.1634   4.2293   4.2412   4.2990   4.3204   4.3458   4.3995
  4.4212   4.4590   4.4909   4.5253   4.6969   4.7401   4.7763   4.8350
  4.8547   4.8856   4.9509   4.9554   5.0415   5.1074   5.1435   5.1668
  5.2370   5.3135   5.3226   5.3483   5.3576   5.3641   5.4190   5.4398
  5.4700   5.5133   5.5782   5.5904   5.6178   5.6286   5.6615   5.7140
  5.7450   5.7476   5.8402   5.8869   5.9609   6.0092   6.0145   6.0738
  6.1110   6.1909   6.2967   6.3006   6.3489   6.3568   6.4686   6.5301
  6.6289   6.6560   6.7336   6.7596   6.8081   6.8648   6.8956   6.9798
  7.0056   7.0894   7.1700   7.3157   7.4035   7.4563   7.5151   7.6356
  7.7249  14.8777  23.3621  23.6192  23.9003  44.2236  44.3634  44.5595
 --------------------------------------------------------------
 
          Ground-State Mulliken Net Atomic Charges

     Atom                 Charge (a.u.)
  ----------------------------------------
      1 O                    -0.803349
      2 C                     0.489011
      3 O                    -0.291731
      4 O                    -0.814647
      5 Li                    0.858063
      6 C                     0.335766
      7 C                    -1.188247
      8 H                     0.100819
      9 H                     0.065954
     10 H                     0.148658
     11 H                     0.099704
  ----------------------------------------
  Sum of atomic charges =    -1.000000

  Building new vdw surfaces
         Merz-Kollman RESP Net Atomic Charges

     Atom                 Charge (a.u.)
  ----------------------------------------
      1 O                    -0.755863
      2 C                     0.705395
      3 O                    -0.542754
      4 O                    -0.755863
      5 Li                    0.814698
      6 C                     0.698580
      7 C                    -1.732061
      8 H                    -0.032333
      9 H                    -0.032333
     10 H                     0.316266
     11 H                     0.316266
  ----------------------------------------
  Sum of atomic charges =    -1.000000

  Related Dipole Moment =    10.9836 (X -9.4614 Y -3.3288 Z  4.4768)

 -----------------------------------------------------------------
                    Cartesian Multipole Moments
 -----------------------------------------------------------------
    Charge (ESU x 10^10)
                -4.8032
    Dipole Moment (Debye)
         X      -9.6642      Y      -3.2903      Z       4.6579
       Tot      11.2213
    Quadrupole Moments (Debye-Ang)
        XX     -42.2809     XY     -12.8909     YY     -49.6262
        XZ     -10.5521     YZ       0.7330     ZZ     -46.4229
    Octopole Moments (Debye-Ang^2)
       XXX    -130.4788    XXY     -17.0918    XYY     -28.6803
       YYY     -26.1926    XXZ      30.8462    XYZ       2.5319
       YYZ       7.3973    XZZ     -20.3366    YZZ      -4.5174
       ZZZ       8.5375
    Hexadecapole Moments (Debye-Ang^3)
      XXXX    -663.4964   XXXY    -150.5943   XXYY    -167.9020
      XYYY    -102.8922   YYYY    -200.6708   XXXZ     -88.0692
      XXYZ       0.6329   XYYZ       8.1684   YYYZ      -0.5414
      XXZZ    -123.6784   XYZZ     -33.1913   YYZZ     -60.2226
      XZZZ       4.4579   YZZZ      -6.8773   ZZZZ    -169.4886
 -----------------------------------------------------------------
 Calculating analytic gradient of the SCF energy
 Gradient of CDS energy
            1           2           3           4           5           6
    1  -0.0001151  -0.0000031   0.0007498  -0.0005304  -0.0000346   0.0002664
    2   0.0001032  -0.0005154   0.0002497   0.0001007  -0.0000060  -0.0013768
    3   0.0001477  -0.0002904   0.0000519   0.0001987   0.0000218   0.0001615
            7           8           9          10          11
    1   0.0005671  -0.0004278  -0.0002897  -0.0001710  -0.0000116
    2   0.0014608   0.0002753   0.0001151  -0.0001916  -0.0002150
    3  -0.0000408  -0.0000462  -0.0001589   0.0001222  -0.0001676
 Gradient of SCF Energy
            1           2           3           4           5           6
    1   0.0025243   0.0226264  -0.0396744   0.0082522  -0.0114478   0.0567374
    2   0.0005368   0.0164056  -0.0009123   0.0001072  -0.0004994  -0.0610479
    3  -0.0053514  -0.0141354  -0.0021150   0.0000090   0.0055753   0.0303691
            7           8           9          10          11
    1   0.0882108   0.0006086  -0.0210469  -0.0775769  -0.0292136
    2   0.0366566   0.0117016   0.0243560  -0.0040456  -0.0232586
    3   0.0423780  -0.0317757   0.0249597   0.0268269  -0.0767405
 Max gradient component =       8.821E-02
 RMS gradient           =       3.414E-02
 Computing fast CPCM-SWIG gradient
 Updating gradient with PCM contributions...
 -- total gradient after adding PCM contribution --
---------------------------------------------------
  Atom         X              Y              Z     
---------------------------------------------------
   1      -0.000081       0.000097       0.000382
   2       0.000242      -0.000115      -0.000367
   3      -0.000365      -0.000217      -0.000068
   4      -0.000154       0.000086       0.000016
   5       0.000040      -0.000028      -0.000044
   6       0.000479       0.000258       0.000233
   7      -0.000180      -0.000091      -0.000106
   8       0.000011       0.000020      -0.000049
   9      -0.000041       0.000008      -0.000031
  10       0.000042      -0.000015       0.000049
  11       0.000007      -0.000001      -0.000014
---------------------------------------------------
 Number of fixed atoms: 0
 Gradient time:  CPU 318.63 s  wall 14.69 s
 ----------------------------------------------------------------
             Standard Nuclear Orientation (Angstroms)
    I     Atom           X                Y                Z
 ----------------------------------------------------------------
    1      O      -0.6476449777     0.0441305667     1.1759139822
    2      C      -0.6654557126    -0.2666753180    -0.0616222150
    3      O       0.4346119692    -0.5211131676    -0.7333803419
    4      O      -1.7781040451    -0.3548452790    -0.6856962061
    5      Li     -2.4968088537     0.1498919248     0.9551905439
    6      C       1.8207509203    -0.1583562663    -0.0393154973
    7      C       2.2240249086     1.2262262684    -0.1247135739
    8      H       1.6582521617    -0.5527417940     0.9645956636
    9      H       2.4399260016    -0.8503729336    -0.6161557163
   10      H       3.0396967041     1.4752110615    -0.8042558204
   11      H       2.1736930080     1.8319287364     0.7806303305
 ----------------------------------------------------------------
 Nuclear Repulsion Energy =         252.13722721 hartrees
 There are       25 alpha and       25 beta electrons
 Discretize the solute cavity surface with Lebedev spheres
	Using 110 Lebedev grid points for each H atom
	Using 194 Lebedev grid points for other atoms
	Atomic van der Waals radii will be scaled by 1.20
 Remove points where switching function is < 1.0e-08
 Keep 818 surface tesserae and discard 980 interior tesserae
 Molecular Surface Area = 158.130 Angst**2

                       Distance Matrix (Angstroms)
             O (  1)   C (  2)   O (  3)   O (  4)   Li(  5)   C (  6)
   C (  2)  1.276093
   O (  3)  2.266315  1.313829
   O (  4)  2.214207  1.278761  2.219466
   Li(  5)  1.865291  2.135718  3.448876  1.861130
   C (  6)  2.758761  2.488665  1.592074  3.661717  4.441327
   C (  7)  3.366819  3.252973  2.574037  4.339530  4.960943  1.444642
   H (  8)  2.391249  2.556282  2.093184  3.817220  4.214062  1.090772
   H (  9)  3.680319  3.208053  2.035544  4.247607  5.276458  1.093165
   H ( 10)  4.423297  4.160989  3.282804  5.155033  5.958609  2.177040
   H ( 11)  3.363394  3.629641  3.294456  4.748557  4.967223  2.181310
             C (  7)   H (  8)   H (  9)   H ( 10)
   H (  8)  2.161347
   H (  9)  2.144853  1.788400
   H ( 10)  1.090455  3.024867  2.409035
   H ( 11)  1.090439  2.446666  3.035891  1.840944
 
 Requested basis set is def2-TZVPPD
 There are 119 shells and 321 basis functions
 A cutoff of  1.0D-14 yielded   6765 shell pairs
 There are     49983 function pairs (     63653 Cartesian)
 Smallest overlap matrix eigenvalue = 1.11E-05
 Guess MOs from SCF MO coefficient file

 -----------------------------------------------------------------------
  General SCF calculation program by
  Eric Jon Sundstrom, Paul Horn, Yuezhi Mao, Dmitri Zuev, Alec White,
  David Stuck, Shaama M.S., Shane Yost, Joonho Lee, David Small,
  Daniel Levine, Susi Lehtola, Hugh Burton, Evgeny Epifanovsky
 -----------------------------------------------------------------------
 Exchange:     0.1670 Hartree-Fock + 1.0000 wB97X-V + LR-HF
 Correlation:  1.0000 wB97X-V
 Using SG-3 standard quadrature grid
 Nonlocal Correlation:  VV10 with C = 0.0100 and b = 6.00 and scale = 1.00000
 Grid used for NLC:  SG-1 standard quadrature
 
 Citation of the SMD model:
 Marenich, A.V.; Cramer, C.J.; Truhlar, D.G.
 J. Phys. Chem. B 2009, 113, 6378-6396.
 iSolventCode=           0
 Solvent: other                                                           
 
 vradii
            1           2           3           4           5           6
    1   2.2940000   1.8500000   2.2940000   2.2940000   2.1476001   1.8500000
            7           8           9          10          11
    1   1.8500000   1.2000000   1.2000000   1.2000000   1.2000000
 using 32 threads for integral computing
 -------------------------------------------------------
 OpenMP Integral computing Module                
 Release: version 1.0, May 2013, Q-Chem Inc. Pittsburgh 
 -------------------------------------------------------
 using 32 threads for integral computing
 -------------------------------------------------------
 OpenMP Integral computing Module                
 Release: version 1.0, May 2013, Q-Chem Inc. Pittsburgh 
 -------------------------------------------------------
 -------------------------------------------------------
 OpenMP BLAS3 based DFT computing Module                
 Release: version 1.0, May 2013, Q-Chem Inc. Pittsburgh 
 -------------------------------------------------------
 -------------------------------------------------------
 OpenMP BLAS3 based DFT computing Module                
 Release: version 1.0, May 2013, Q-Chem Inc. Pittsburgh 
 -------------------------------------------------------
 -------------------------------------------------------
 OpenMP BLAS3 based DFT computing Module                
 Release: version 1.0, May 2013, Q-Chem Inc. Pittsburgh 
 -------------------------------------------------------
 A restricted SCF calculation will be
 performed using Roothaan-Hall, DIIS
 SCF converges when DIIS error is below 1.0e-08
 ---------------------------------------
  Cycle       Energy         DIIS error
 ---------------------------------------
    1    -350.0972122319      1.10e-05  Roothaan Step
 ---------------------------------------
  Cycle       Energy         DIIS error
 ---------------------------------------
    1    -350.0971270177      2.07e-06  
    2    -350.0971271171      1.22e-06  
    3    -350.0971271315      8.19e-07  
    4    -350.0971271406      1.27e-07  
    5    -350.0971271403      4.71e-08  
    6    -350.0971271410      2.19e-08  
    7    -350.0971271404      7.10e-09  Convergence criterion met
 ---------------------------------------
 SCF time:   CPU 849.64s  wall 31.00s 
(3)  G-ENP(liq) elect-nuc-pol free energy of system     -350.097127140 a.u.
(4)  G-CDS(liq) cavity-dispersion-solvent structure 
     free energy                                               -1.7247 kcal/mol
(6)  G-S(liq) free energy of system                     -350.099875666 a.u.
 SCF   energy in the final basis set =     -350.0971271404
 Total energy in the final basis set =     -350.0998756661
 
 --------------------------------------------------------------
 
                    Orbital Energies (a.u.)
 --------------------------------------------------------------
 
 Alpha MOs
 -- Occupied --
-19.1793 -19.1410 -19.1379 -10.3750 -10.2697 -10.1646  -2.0663  -1.1878
 -1.0803  -1.0481  -0.8246  -0.6811  -0.5999  -0.5581  -0.5451  -0.5338
 -0.4991  -0.4594  -0.4248  -0.3980  -0.3819  -0.3592  -0.3482  -0.3366
 -0.2208
 -- Virtual --
  0.0390   0.0552   0.0560   0.0645   0.1009   0.1118   0.1206   0.1274
  0.1431   0.1472   0.1524   0.1547   0.1625   0.1689   0.1734   0.1799
  0.1890   0.1987   0.2098   0.2214   0.2249   0.2376   0.2513   0.2610
  0.2668   0.2768   0.2918   0.3018   0.3063   0.3123   0.3298   0.3345
  0.3483   0.3599   0.3659   0.3743   0.3755   0.3872   0.4006   0.4055
  0.4099   0.4169   0.4301   0.4315   0.4372   0.4423   0.4431   0.4519
  0.4659   0.4755   0.4797   0.4879   0.4959   0.4984   0.5053   0.5174
  0.5237   0.5336   0.5403   0.5463   0.5497   0.5685   0.5750   0.5882
  0.5917   0.6015   0.6085   0.6164   0.6222   0.6423   0.6495   0.6722
  0.6804   0.6925   0.7049   0.7140   0.7203   0.7331   0.7428   0.7583
  0.7690   0.7926   0.7957   0.8135   0.8193   0.8274   0.8404   0.8532
  0.8613   0.8682   0.8737   0.8969   0.9074   0.9187   0.9250   0.9361
  0.9826   0.9891   1.0123   1.0284   1.0302   1.0453   1.0658   1.0761
  1.0987   1.1115   1.1297   1.1582   1.1897   1.2166   1.2251   1.2477
  1.2678   1.2705   1.2908   1.3021   1.3162   1.3364   1.3508   1.3670
  1.3767   1.3964   1.4289   1.4614   1.4914   1.4942   1.5201   1.5638
  1.5658   1.5907   1.6168   1.6566   1.6757   1.7400   1.7547   1.8014
  1.8145   1.8622   1.8893   1.9227   1.9289   1.9556   1.9710   1.9798
  1.9905   2.0139   2.0595   2.0744   2.1240   2.1367   2.1968   2.2153
  2.2448   2.3101   2.3226   2.3635   2.3966   2.4437   2.4692   2.4906
  2.5252   2.5556   2.6295   2.6475   2.7557   2.8173   2.8428   2.8797
  2.9104   2.9475   2.9571   2.9920   3.0112   3.0231   3.0559   3.0799
  3.0965   3.1228   3.1931   3.2389   3.2442   3.2748   3.3001   3.3207
  3.3455   3.3562   3.3884   3.3963   3.4070   3.4221   3.4369   3.4546
  3.4885   3.5011   3.5305   3.5546   3.5698   3.6115   3.6155   3.6297
  3.6498   3.6561   3.6634   3.6954   3.7026   3.7148   3.7483   3.7992
  3.8648   3.8842   3.9147   3.9582   4.0305   4.0469   4.0690   4.1142
  4.1370   4.1634   4.2297   4.2412   4.2990   4.3204   4.3458   4.3996
  4.4212   4.4589   4.4909   4.5253   4.6968   4.7401   4.7762   4.8350
  4.8547   4.8856   4.9506   4.9554   5.0415   5.1074   5.1435   5.1668
  5.2370   5.3135   5.3226   5.3484   5.3577   5.3641   5.4190   5.4398
  5.4701   5.5133   5.5783   5.5904   5.6178   5.6288   5.6617   5.7144
  5.7451   5.7477   5.8406   5.8870   5.9614   6.0093   6.0146   6.0738
  6.1110   6.1909   6.2968   6.3011   6.3488   6.3572   6.4693   6.5305
  6.6290   6.6561   6.7336   6.7598   6.8083   6.8648   6.8957   6.9800
  7.0057   7.0894   7.1702   7.3155   7.4036   7.4568   7.5156   7.6362
  7.7250  14.8777  23.3620  23.6192  23.9021  44.2237  44.3636  44.5595
 --------------------------------------------------------------
 
          Ground-State Mulliken Net Atomic Charges

     Atom                 Charge (a.u.)
  ----------------------------------------
      1 O                    -0.803135
      2 C                     0.489194
      3 O                    -0.291813
      4 O                    -0.814857
      5 Li                    0.858042
      6 C                     0.335772
      7 C                    -1.188393
      8 H                     0.100776
      9 H                     0.065956
     10 H                     0.148601
     11 H                     0.099856
  ----------------------------------------
  Sum of atomic charges =    -1.000000

  Building new vdw surfaces
         Merz-Kollman RESP Net Atomic Charges

     Atom                 Charge (a.u.)
  ----------------------------------------
      1 O                    -0.756171
      2 C                     0.706305
      3 O                    -0.543202
      4 O                    -0.756171
      5 Li                    0.814817
      6 C                     0.698620
      7 C                    -1.732929
      8 H                    -0.032176
      9 H                    -0.032176
     10 H                     0.316542
     11 H                     0.316542
  ----------------------------------------
  Sum of atomic charges =    -1.000000

  Related Dipole Moment =    10.9831 (X -9.4620 Y -3.3228 Z  4.4787)

 -----------------------------------------------------------------
                    Cartesian Multipole Moments
 -----------------------------------------------------------------
    Charge (ESU x 10^10)
                -4.8032
    Dipole Moment (Debye)
         X      -9.6647      Y      -3.2846      Z       4.6607
       Tot      11.2213
    Quadrupole Moments (Debye-Ang)
        XX     -42.2820     XY     -12.8956     YY     -49.6245
        XZ     -10.5549     YZ       0.7414     ZZ     -46.4226
    Octopole Moments (Debye-Ang^2)
       XXX    -130.4757    XXY     -17.0762    XYY     -28.6837
       YYY     -26.1576    XXZ      30.8516    XYZ       2.5243
       YYZ       7.3998    XZZ     -20.3373    YZZ      -4.4975
       ZZZ       8.5481
    Hexadecapole Moments (Debye-Ang^3)
      XXXX    -663.5051   XXXY    -150.6208   XXYY    -167.9004
      XYYY    -102.9186   YYYY    -200.6626   XXXZ     -88.0829
      XXYZ       0.6549   XYYZ       8.1659   YYYZ      -0.4940
      XXZZ    -123.6798   XYZZ     -33.2052   YYZZ     -60.2200
      XZZZ       4.4494   YZZZ      -6.8243   ZZZZ    -169.4821
 -----------------------------------------------------------------
 Calculating analytic gradient of the SCF energy
 Gradient of CDS energy
            1           2           3           4           5           6
    1  -0.0001152  -0.0000031   0.0007498  -0.0005304  -0.0000346   0.0002664
    2   0.0001034  -0.0005141   0.0002497   0.0001007  -0.0000070  -0.0013768
    3   0.0001450  -0.0002880   0.0000519   0.0001987   0.0000221   0.0001617
            7           8           9          10          11
    1   0.0005675  -0.0004282  -0.0002897  -0.0001710  -0.0000116
    2   0.0014608   0.0002749   0.0001151  -0.0001916  -0.0002150
    3  -0.0000410  -0.0000461  -0.0001589   0.0001222  -0.0001676
 Gradient of SCF Energy
            1           2           3           4           5           6
    1   0.0025162   0.0226331  -0.0397369   0.0082979  -0.0114490   0.0567807
    2   0.0003035   0.0167597  -0.0009638   0.0000064  -0.0004761  -0.0610434
    3  -0.0058009  -0.0138341  -0.0020403   0.0000687   0.0055807   0.0304121
            7           8           9          10          11
    1   0.0881708   0.0005937  -0.0210437  -0.0775936  -0.0291692
    2   0.0366654   0.0117002   0.0243562  -0.0040401  -0.0232681
    3   0.0423398  -0.0317786   0.0249568   0.0268141  -0.0767182
 Max gradient component =       8.817E-02
 RMS gradient           =       3.414E-02
 Computing fast CPCM-SWIG gradient
 Updating gradient with PCM contributions...
 -- total gradient after adding PCM contribution --
---------------------------------------------------
  Atom         X              Y              Z     
---------------------------------------------------
   1      -0.000080      -0.000171      -0.000092
   2       0.000245       0.000311      -0.000085
   3      -0.000436      -0.000290       0.000034
   4      -0.000106      -0.000025       0.000102
   5       0.000038      -0.000011      -0.000041
   6       0.000503       0.000279       0.000242
   7      -0.000175      -0.000103      -0.000108
   8       0.000007       0.000019      -0.000049
   9      -0.000042       0.000009      -0.000032
  10       0.000044      -0.000018       0.000049
  11       0.000002      -0.000000      -0.000018
---------------------------------------------------
 Number of fixed atoms: 0
 Gradient time:  CPU 318.17 s  wall 14.47 s
 ----------------------------------------------------------------
             Standard Nuclear Orientation (Angstroms)
    I     Atom           X                Y                Z
 ----------------------------------------------------------------
    1      O      -0.6476449777     0.0451305667     1.1769139822
    2      C      -0.6654557126    -0.2666753180    -0.0616222150
    3      O       0.4346119692    -0.5211131676    -0.7333803419
    4      O      -1.7781040451    -0.3548452790    -0.6856962061
    5      Li     -2.4968088537     0.1498919248     0.9551905439
    6      C       1.8207509203    -0.1583562663    -0.0393154973
    7      C       2.2240249086     1.2262262684    -0.1247135739
    8      H       1.6582521617    -0.5527417940     0.9645956636
    9      H       2.4399260016    -0.8503729336    -0.6161557163
   10      H       3.0396967041     1.4752110615    -0.8042558204
   11      H       2.1736930080     1.8319287364     0.7806303305
 ----------------------------------------------------------------
 Nuclear Repulsion Energy =         252.10169460 hartrees
 There are       25 alpha and       25 beta electrons
 Discretize the solute cavity surface with Lebedev spheres
	Using 110 Lebedev grid points for each H atom
	Using 194 Lebedev grid points for other atoms
	Atomic van der Waals radii will be scaled by 1.20
 Remove points where switching function is < 1.0e-08
 Keep 818 surface tesserae and discard 980 interior tesserae
 Molecular Surface Area = 158.141 Angst**2

                       Distance Matrix (Angstroms)
[...]
    11    1.481128168463094e-02   7.307170897947646e-03  -1.439276531876589e-02


    11 Order 1, Length 33
    Atom      X          Y          Z
     1   -2.230740863846181e-04   1.343766924367077e-03   1.007747007773393e-03
     2    3.053140366134897e-03  -2.089486332726006e-03  -2.794856099729135e-03
     3   -8.183588911502761e-03  -3.637492556420703e-03  -1.606244496724617e-03
     4   -1.626416052585816e-03   4.268209368946922e-04   1.694879751327671e-04
     5    1.388158974159119e-04  -9.380759540688576e-05  -1.007331068794308e-04
     6    5.263437290219095e-03   3.939940499589545e-03  -5.545645218766356e-03
     7   -1.681928734261651e-02  -2.098833045267701e-02   2.156987981264230e-02
     8   -3.000169793418541e-03  -1.339076332587465e-03  -6.556808144267702e-04
     9    2.511020041081505e-03   1.516638397323484e-03   1.264155584672701e-03
    10   -2.898091572187704e-03   1.382123331264858e-02   1.481128168463094e-02
    11    2.179511634505424e-02   7.089361731994462e-03  -2.810483906599361e-02

Order 1, Length 33
    Atom      X          Y          Z
     1   -2.989304233295428e-04  -2.341463336776140e-04   5.303907937255515e-04
     2    1.385478259597330e-03   1.570183222680966e-04  -5.742288639762256e-04
     3    4.332272013047967e-04  -5.301809420640943e-04   1.067174013772866e-03
     4   -5.113988373918531e-04   2.205681782070906e-05  -7.941470134485880e-05
     5    1.225930121041926e-04   3.876682958443584e-07  -6.536364496931375e-05
     6    2.430571925596582e-03  -1.721511610762611e-02  -2.615979381714687e-02
     7   -1.210259922080075e-02  -1.148537496540332e-01  -1.255449062002942e-01
     8    1.601240109740034e-03   2.518583350201558e-03   2.509983011681554e-04
     9   -2.022429127754413e-03  -5.847306635015020e-03  -3.963299382117074e-04
    10    1.844490710177806e-03   2.704188800296505e-03   7.307170897947646e-03
    11    7.089361731994462e-03   1.332639771284492e-01   1.436451162274194e-01

Order 1, Length 33
    Atom      X          Y          Z
     1    4.191391357003010e-05   1.093021338787766e-03   5.408651491445361e-04
     2    1.623793704856027e-03  -1.138060190292221e-03  -1.568979766540899e-03
     3   -3.744410279602149e-03  -1.723507997669598e-03  -5.020541816037694e-05
     4   -8.094143399186507e-04   2.270896376648138e-04   6.307541477934336e-05
     5    3.603655045082231e-05  -3.916186160138132e-05  -6.814463496606184e-05
     6    2.748721155910478e-03   8.967745402056701e-03   3.304400380901623e-03
     7    3.167361712674990e-02  -1.441224270884269e-01  -2.372864052233099e-01
     8   -1.691053432892575e-03  -7.521535112825206e-04   1.694579013923387e-03
     9    3.440603829217307e-04   1.617384257694638e-03   1.524796113760760e-03
    10   -2.143927059880678e-03  -7.804044665784268e-03  -1.439276531876589e-02
    11   -2.810483906599361e-02   1.436451162274194e-01   2.462147701686004e-01




 # Finishing finite difference calculation for IDERIV #
 ######################################################
 ######################################################
 Requested basis set is def2-TZVPPD
 There are 119 shells and 321 basis functions
 **********************************************************************
 **                                                                  **
 **                       VIBRATIONAL ANALYSIS                       **
 **                       --------------------                       **
 **                                                                  **
 **        VIBRATIONAL FREQUENCIES (CM**-1) AND NORMAL MODES         **
 **     FORCE CONSTANTS (mDYN/ANGSTROM) AND REDUCED MASSES (AMU)     **
 **                  INFRARED INTENSITIES (KM/MOL)                   **
 **                                                                  **
 **********************************************************************
 

 Mode:                 1                      2                      3
 Frequency:      -393.20                  79.20                 100.16
 Force Cnst:      0.1678                 0.0197                 0.0236
 Red. Mass:       1.8426                 5.3373                 3.9866
 IR Active:          YES                    YES                    YES
 IR Intens:      649.746                 37.688                 15.378
 Raman Active:       YES                    YES                    YES
               X      Y      Z        X      Y      Z        X      Y      Z
 O         -0.009 -0.004 -0.012    0.061 -0.172  0.041    0.099  0.208 -0.093
 C         -0.017 -0.021 -0.029    0.052 -0.085  0.021    0.011  0.004 -0.038
 O         -0.076 -0.040 -0.037    0.041 -0.223  0.049   -0.027  0.001 -0.099
 O         -0.059  0.013  0.009    0.064  0.152 -0.031   -0.039 -0.195  0.077
 Li         0.008  0.002  0.006    0.113  0.440 -0.095    0.086  0.142  0.031
 C          0.149  0.062  0.055    0.008  0.008 -0.043   -0.004 -0.065 -0.106
 C          0.129 -0.066  0.082   -0.305  0.106  0.015   -0.085 -0.021  0.265
 H         -0.011  0.042  0.013    0.188 -0.093 -0.052    0.088 -0.377 -0.211
 H          0.019  0.015 -0.020    0.111  0.179 -0.138    0.011  0.150 -0.347
 H         -0.467  0.380 -0.441   -0.435  0.342 -0.054   -0.097  0.215  0.339
 H         -0.437  0.343 -0.245   -0.356  0.033  0.060   -0.195 -0.234  0.399
 TransDip   0.113  0.742 -0.322    0.112  0.150 -0.061    0.048  0.067 -0.095

 Mode:                 4                      5                      6
 Frequency:       148.46                 239.15                 358.46
 Force Cnst:      0.0999                 0.0726                 0.1701
 Red. Mass:       7.6942                 2.1559                 2.2464
 IR Active:          YES                    YES                    YES
 IR Intens:       54.238                 42.560                190.030
 Raman Active:       YES                    YES                    YES
               X      Y      Z        X      Y      Z        X      Y      Z
 O         -0.069 -0.255  0.067    0.101 -0.030 -0.067   -0.032 -0.002 -0.083
 C         -0.051 -0.127  0.032    0.010 -0.019 -0.073   -0.057 -0.043 -0.079
 O         -0.027  0.250 -0.067   -0.001  0.004 -0.098   -0.023 -0.119  0.010
 O         -0.062 -0.270  0.068   -0.032  0.005  0.009   -0.086  0.008 -0.045
 Li         0.000  0.617 -0.182    0.157  0.041  0.146    0.106  0.033  0.205
 C          0.005  0.096 -0.002   -0.106  0.022  0.152    0.070  0.086  0.057
 C          0.217  0.034 -0.018   -0.039 -0.011 -0.013    0.039  0.098  0.031
 H         -0.107  0.158  0.001   -0.395  0.195  0.167    0.064  0.155  0.075
 H         -0.077 -0.017  0.045    0.016 -0.092  0.422   -0.011  0.024  0.046
 H          0.282 -0.125 -0.001    0.261 -0.204  0.277    0.001 -0.042 -0.082
 H          0.381  0.010  0.009   -0.440  0.234 -0.197    0.815 -0.255  0.317
 TransDip  -0.007  0.228 -0.059    0.004  0.055  0.202    0.396 -0.056  0.186

 Mode:                 7                      8                      9
 Frequency:       371.44                 445.10                 558.78
 Force Cnst:      0.1222                 0.6134                 1.2605
 Red. Mass:       1.5027                 5.2549                 6.8522
 IR Active:          YES                    YES                    YES
 IR Intens:       54.652                 25.019                220.091
 Raman Active:       YES                    YES                    YES
               X      Y      Z        X      Y      Z        X      Y      Z
 O         -0.036 -0.004  0.004   -0.245  0.003  0.002   -0.027  0.029  0.095
 C         -0.026 -0.026  0.005   -0.039  0.022 -0.028   -0.085  0.006  0.066
 O         -0.029 -0.083  0.013    0.083  0.112  0.123   -0.179  0.002  0.111
 O         -0.046  0.027  0.017    0.104 -0.077 -0.197   -0.048  0.002 -0.054
 Li        -0.067  0.004  0.004    0.239  0.114  0.474    0.767 -0.176 -0.408
 C          0.108  0.045 -0.052    0.007 -0.082 -0.080   -0.059  0.053 -0.022
 C          0.066  0.056 -0.020   -0.003 -0.063 -0.029    0.035  0.006  0.004
 H          0.101 -0.104 -0.108    0.223 -0.237 -0.090    0.020 -0.061 -0.055
 H          0.122  0.161 -0.161    0.033  0.050 -0.213   -0.179  0.095 -0.192
 H          0.611 -0.130  0.562   -0.037  0.099  0.002    0.155 -0.115  0.106
 H         -0.375  0.089 -0.059   -0.536  0.163 -0.215    0.008  0.018 -0.005
 TransDip   0.160  0.026  0.173   -0.109  0.038  0.111    0.435 -0.042 -0.186

 Mode:                10                     11                     12
 Frequency:       592.81                 700.88                 762.46
 Force Cnst:      1.4904                 1.2712                 3.8312
 Red. Mass:       7.1983                 4.3922                11.1855
 IR Active:          YES                    YES                    YES
 IR Intens:      383.078                107.845                 88.318
 Raman Active:       YES                    YES                    YES
               X      Y      Z        X      Y      Z        X      Y      Z
 O         -0.046 -0.013 -0.036    0.244 -0.062 -0.134   -0.309 -0.056 -0.232
 C         -0.001  0.054 -0.071   -0.111  0.009 -0.064    0.088  0.014 -0.140
 O          0.018  0.209 -0.023    0.066  0.078  0.275    0.426 -0.038  0.058
 O         -0.155 -0.005  0.079   -0.171 -0.015 -0.076   -0.220  0.111  0.424
 Li         0.096 -0.025 -0.094   -0.089  0.004 -0.019    0.217 -0.063 -0.166
 C          0.465 -0.171  0.230   -0.084 -0.017  0.042   -0.174 -0.053 -0.139
 C         -0.331 -0.051 -0.165    0.039 -0.000  0.006    0.108  0.018  0.041
 H          0.346 -0.225  0.183    0.445 -0.379 -0.002    0.051  0.112 -0.020
 H          0.288 -0.168  0.053   -0.106  0.290 -0.355    0.151 -0.055  0.186
 H         -0.013 -0.171  0.148   -0.028 -0.175 -0.134   -0.131  0.303 -0.128
 H          0.048 -0.291  0.033   -0.050  0.318 -0.215   -0.203  0.077 -0.023
 TransDip   0.621  0.031  0.081   -0.324 -0.073  0.008   -0.190 -0.173 -0.157

 Mode:                13                     14                     15
 Frequency:       819.32                 855.17                1049.09
 Force Cnst:      0.5288                 4.6059                 3.4418
 Red. Mass:       1.3370                10.6896                 5.3077
 IR Active:          YES                    YES                    YES
 IR Intens:        8.789                 46.437                183.090
 Raman Active:       YES                    YES                    YES
               X      Y      Z        X      Y      Z        X      Y      Z
 O          0.053 -0.016  0.002   -0.022 -0.211  0.077    0.041  0.066  0.267
 C         -0.038  0.048 -0.003    0.060  0.798 -0.200   -0.135  0.029  0.074
 O          0.002  0.007  0.073   -0.056 -0.205 -0.005    0.216 -0.056 -0.162
 O         -0.042 -0.020 -0.039    0.028 -0.213  0.055   -0.224 -0.026 -0.160
 Li        -0.006  0.001 -0.003    0.000  0.032 -0.005    0.027 -0.007 -0.015
 C          0.034 -0.023 -0.084   -0.007  0.022  0.041   -0.010 -0.165 -0.037
 C          0.021 -0.001 -0.023   -0.000  0.004  0.017    0.036  0.143  0.043
 H         -0.136  0.449  0.069    0.019 -0.158 -0.026   -0.025 -0.205 -0.044
 H         -0.014 -0.387  0.293    0.004  0.164 -0.112    0.499 -0.047  0.346
 H          0.023  0.485  0.164    0.023 -0.227 -0.043   -0.049  0.016 -0.127
 H         -0.242 -0.380  0.220    0.096  0.182 -0.099    0.172  0.453 -0.151
 TransDip  -0.093 -0.019  0.010    0.030  0.210 -0.052   -0.363 -0.233  0.040

 Mode:                16                     17                     18
 Frequency:      1123.01                1176.75                1305.16
 Force Cnst:      2.2549                 1.4051                 1.1137
 Red. Mass:       3.0347                 1.7222                 1.1096
 IR Active:          YES                    YES                    YES
 IR Intens:      188.395                  2.342                 76.216
 Raman Active:       YES                    YES                    YES
               X      Y      Z        X      Y      Z        X      Y      Z
 O         -0.011 -0.019 -0.085   -0.003  0.015  0.059   -0.001 -0.002 -0.009
 C         -0.026  0.003  0.018    0.002  0.000 -0.011   -0.032  0.007  0.020
 O         -0.108  0.000 -0.016    0.050 -0.020 -0.072   -0.007 -0.003 -0.045
 O          0.083  0.007  0.048   -0.027 -0.003 -0.016    0.014  0.000  0.005
 Li         0.007 -0.002 -0.002   -0.000 -0.000 -0.001    0.004 -0.001 -0.002
 C         -0.036 -0.247  0.084   -0.084  0.054  0.145   -0.012 -0.008 -0.032
 C          0.090  0.254 -0.041    0.054 -0.047 -0.106   -0.017 -0.009  0.054
 H          0.198 -0.409  0.072    0.433 -0.171  0.143    0.760  0.450  0.275
 H         -0.184 -0.371  0.059   -0.258  0.236 -0.263   -0.136 -0.183  0.047
 H          0.092  0.574  0.051    0.041  0.454  0.079    0.022 -0.225  0.021
 H          0.076  0.301 -0.046   -0.197 -0.477  0.176   -0.047  0.155 -0.062
 TransDip  -0.265 -0.348  0.041   -0.043  0.006 -0.023   -0.212 -0.095  0.156

 Mode:                19                     20                     21
 Frequency:      1313.00                1437.48                1479.11
 Force Cnst:      1.2711                 1.3526                 2.0399
 Red. Mass:       1.2514                 1.1110                 1.5826
 IR Active:          YES                    YES                    YES
 IR Intens:      104.261                  2.808                115.485
 Raman Active:       YES                    YES                    YES
               X      Y      Z        X      Y      Z        X      Y      Z
 O          0.005 -0.014 -0.054    0.001  0.001  0.003   -0.007  0.009  0.033
 C         -0.078  0.019  0.053   -0.015 -0.001 -0.006    0.104 -0.022 -0.061
 O         -0.042  0.008 -0.007    0.007  0.001 -0.001   -0.041  0.011  0.018
 O          0.042  0.001  0.016    0.006  0.001  0.004   -0.032 -0.001 -0.011
 Li         0.009 -0.002 -0.004    0.001 -0.000 -0.001   -0.008  0.002  0.004
 C         -0.036 -0.010 -0.002   -0.000 -0.051  0.008   -0.016 -0.134  0.019
 C          0.023 -0.033 -0.021   -0.031 -0.073  0.000    0.048  0.101  0.002
 H          0.202 -0.019  0.031   -0.160  0.395  0.145   -0.141  0.479  0.225
 H          0.775  0.429  0.341    0.038  0.290 -0.339    0.177  0.382 -0.367
 H         -0.033  0.093 -0.040    0.089  0.440  0.308   -0.051 -0.313 -0.261
 H         -0.001 -0.149  0.056    0.364  0.327 -0.226   -0.286 -0.223  0.194
 TransDip  -0.268 -0.120  0.144   -0.053  0.010  0.004    0.246 -0.175 -0.166

 Mode:                22                     23                     24
 Frequency:      1481.12                1531.94                3062.44
 Force Cnst:      4.0588                13.7550                 5.8416
 Red. Mass:       3.1402                 9.9478                 1.0572
 IR Active:          YES                    YES                    YES
 IR Intens:      834.374                835.975                133.158
 Raman Active:       YES                    YES                    YES
               X      Y      Z        X      Y      Z        X      Y      Z
 O         -0.024  0.015  0.058   -0.041 -0.075 -0.298   -0.000  0.000 -0.000
 C          0.351 -0.042 -0.088    0.276  0.164  0.690   -0.001  0.001  0.001
 O         -0.113  0.023  0.052    0.027 -0.031 -0.085    0.002  0.000  0.000
 O         -0.121 -0.007 -0.054   -0.193 -0.029 -0.160    0.000 -0.000 -0.000
 Li        -0.021  0.007  0.019    0.033  0.007  0.036   -0.000  0.000  0.000
 C         -0.072  0.022 -0.041    0.022 -0.002  0.042    0.030 -0.058  0.003
 C         -0.010 -0.043  0.002    0.004  0.004 -0.008   -0.012 -0.011  0.000
 H          0.438 -0.204 -0.048   -0.236  0.127  0.062    0.084  0.175 -0.486
 H          0.291 -0.081  0.479   -0.229  0.082 -0.318   -0.458  0.499  0.432
 H          0.064  0.297  0.207   -0.006 -0.047 -0.033    0.160  0.049 -0.144
 H          0.259  0.201 -0.140   -0.066 -0.051  0.025   -0.015  0.090  0.141
 TransDip   0.920 -0.050 -0.087    0.342  0.203  0.836    0.069 -0.363 -0.010

 Mode:                25                     26                     27
 Frequency:      3094.40                3125.27                3161.07
 Force Cnst:      5.9523                 6.3708                 6.5584
 Red. Mass:       1.0551                 1.1071                 1.1140
 IR Active:          YES                    YES                    YES
 IR Intens:       43.893                 11.430                141.137
 Raman Active:       YES                    YES                    YES
               X      Y      Z        X      Y      Z        X      Y      Z
 O         -0.000  0.000  0.000    0.001 -0.000  0.000    0.000  0.000  0.000
 C          0.001 -0.000 -0.000   -0.000 -0.000 -0.001   -0.000 -0.000 -0.000
 O         -0.000 -0.000  0.000   -0.001 -0.000 -0.000   -0.000 -0.000 -0.000
 O         -0.000  0.000 -0.000   -0.000  0.000  0.000    0.000  0.000  0.000
 Li         0.000  0.000 -0.000   -0.000 -0.000 -0.000   -0.000  0.000 -0.000
 C         -0.010  0.020  0.002    0.033 -0.000 -0.082    0.014 -0.003 -0.031
 C         -0.037 -0.048 -0.012   -0.017  0.004  0.029    0.043 -0.018 -0.079
 H         -0.017 -0.038  0.105   -0.125 -0.283  0.740   -0.043 -0.094  0.248
 H          0.140 -0.154 -0.132   -0.270  0.304  0.254   -0.121  0.135  0.116
 H          0.485  0.143 -0.429    0.199  0.066 -0.169   -0.494 -0.155  0.407
 H         -0.052  0.381  0.578    0.010 -0.122 -0.173   -0.026  0.370  0.548
 TransDip  -0.200 -0.047 -0.054    0.001  0.048 -0.097    0.173 -0.066 -0.332

 STANDARD THERMODYNAMIC QUANTITIES AT   298.15 K  AND     1.00 ATM

   This Molecule has  1 Imaginary Frequencies
   Zero point vibrational energy:       43.418 kcal/mol

   Atom    1 Element O  Has Mass   15.99491
   Atom    2 Element C  Has Mass   12.00000
   Atom    3 Element O  Has Mass   15.99491
   Atom    4 Element O  Has Mass   15.99491
   Atom    5 Element Li Has Mass    7.01600
   Atom    6 Element C  Has Mass   12.00000
   Atom    7 Element C  Has Mass   12.00000
   Atom    8 Element H  Has Mass    1.00783
   Atom    9 Element H  Has Mass    1.00783
   Atom   10 Element H  Has Mass    1.00783
   Atom   11 Element H  Has Mass    1.00783
   Molecular Mass:    95.032050 amu
   Principal axes and moments of inertia in amu*Bohr^2:
                             1           2           3
    Eigenvalues --      251.98563   922.36698  1048.00206
          X               0.97899    -0.00632    -0.20381
          Y               0.18510     0.44684     0.87525
          Z              -0.08554     0.89459    -0.43863
   Rotational Symmetry Number is   1
   The Molecule is an Asymmetric Top
   Translational Enthalpy:        0.889 kcal/mol
   Rotational Enthalpy:           0.889 kcal/mol
   Vibrational Enthalpy:         46.190 kcal/mol
   gas constant (RT):             0.592 kcal/mol
   Translational Entropy:        39.566  cal/mol.K
   Rotational Entropy:           26.990  cal/mol.K
   Vibrational Entropy:          17.051  cal/mol.K

   Total Enthalpy:               48.560 kcal/mol
   Total Entropy:                83.607  cal/mol.K
Archival summary:
1\1\nid01064\FREQ\ProcedureUnspecified\BasisUnspecified\33i14(1-,1)\ewcss\FriOct411:04:582019FriOct411:04:582019\0\\#,FREQ,ProcedureUnspecified,BasisUnspecified,\\-1,1\O\C,1,1.31383\O,2,1.27634,1,122.099\O,2,1.27876,1,117.752,3,-179.234,0\C,1,1.59207,2,117.514,3,-11.5933,0\H,5,1.09077,1,100.903,2,45.2908,0\H,5,1.09316,1,96.8263,2,157.189,0\C,5,1.44464,1,115.827,2,-81.1434,0\H,8,1.09044,5,118.061,1,107.844,0\H,8,1.09045,5,117.677,1,-106.714,0\Li,4,1.86113,2,83.5132,1,-179.406,0\\\@

 Total job time:  3206.83s(wall), 82013.79s(cpu) 
 Fri Oct  4 11:04:58 2019

        *************************************************************
        *                                                           *
        *  Thank you very much for using Q-Chem.  Have a nice day.  *
        *                                                           *
        *************************************************************


