
Running Job 1 of 1 mol.qin
qchem mol.qin_353291.0 /tmp/scratch/ 0
/clusterfs/mp/software/qchem/exe/qcprog.exe_s mol.qin_353291.0 /tmp/scratch/
                  Welcome to Q-Chem
     A Quantum Leap Into The Future Of Chemistry


 Q-Chem 5.2, Q-Chem, Inc., Pleasanton, CA (2019)

 Yihan Shao,  Zhengting Gan,  E. Epifanovsky,  A. T. B. Gilbert,  M. Wormit,  
 J. Kussmann,  A. W. Lange,  A. Behn,  Jia Deng,  Xintian Feng,  D. Ghosh,  
 M. Goldey,  P. R. Horn,  L. D. Jacobson,  I. Kaliman,  T. Kus,  A. Landau,  
 Jie Liu,  E. I. Proynov,  R. M. Richard,  R. P. Steele,  E. J. Sundstrom,  
 H. L. Woodcock III,  P. M. Zimmerman,  D. Zuev,  B. Alam,  B. Albrecht,  
 E. Alguire,  S. A. Baeppler,  D. Barton,  Z. Benda,  Y. A. Bernard,  
 E. J. Berquist,  K. B. Bravaya,  H. Burton,  K. Carter-Fenk,  D. Casanova,  
 Chun-Min Chang,  Yunqing Chen,  A. Chien,  K. D. Closser,  M. P. Coons,  
 S. Coriani,  S. Dasgupta,  A. L. Dempwolff,  M. Diedenhofen,  Hainam Do,  
 R. G. Edgar,  Po-Tung Fang,  S. Faraji,  S. Fatehi,  Qingguo Feng,  
 J. Fosso-Tande,  J. Gayvert,  Qinghui Ge,  A. Ghysels,  G. Gidofalvi,  
 J. Gomes,  J. Gonthier,  A. Gunina,  D. Hait,  M. W. D. Hanson-Heine,  
 P. H. P. Harbach,  A. W. Hauser,  M. F. Herbst,  J. E. Herr,  
 E. G. Hohenstein,  Z. C. Holden,  Kerwin Hui,  B. C. Huynh,  T.-C. Jagau,  
 Hyunjun Ji,  B. Kaduk,  K. Khistyaev,  Jaehoon Kim,  P. Klunzinger,  K. Koh,  
 D. Kosenkov,  L. Koulias,  T. Kowalczyk,  C. M. Krauter,  A. Kunitsa,  
 Ka Un Lao,  A. Laurent,  K. V. Lawler,  Joonho Lee,  D. Lefrancois,  
 S. Lehtola,  D. S. Levine,  Yi-Pei Li,  You-Sheng Lin,  Fenglai Liu,  
 Kuan-Yu Liu,  E. Livshits,  M. Loipersberger,  A. Luenser,  P. Manohar,  
 E. Mansoor,  S. F. Manzer,  Shan-Ping Mao,  Yuezhi Mao,  N. Mardirossian,  
 A. V. Marenich,  T. Markovich,  L. A. Martinez-Martinez,  S. A. Maurer,  
 N. J. Mayhall,  S. C. McKenzie,  J.-M. Mewes,  P. Morgante,  A. F. Morrison,  
 J. W. Mullinax,  K. Nanda,  T. S. Nguyen-Beck,  R. Olivares-Amaya,  
 J. A. Parkhill,  S. K. Paul,  Zheng Pei,  T. M. Perrine,  F. Plasser,  
 P. Pokhilko,  S. Prager,  A. Prociuk,  E. Ramos,  B. Rana,  D. R. Rehn,  
 F. Rob,  M. Scheurer,  M. Schneider,  N. Sergueev,  S. M. Sharada,  
 S. Sharma,  D. W. Small,  T. Stauch,  C. J. Stein,  T. Stein,  Yu-Chuan Su,  
 S. P. Veccham,  A. J. W. Thom,  A. Tkatchenko,  T. Tsuchimochi,  
 N. M. Tubman,  L. Vogt,  M. L. Vidal,  O. Vydrov,  M. A. Watson,  J. Wenzel,  
 M. de Wergifosse,  T. A. Wesolowski,  A. White,  J. Witte,  A. Yamada,  
 Jun Yang,  K. Yao,  S. Yeganeh,  S. R. Yost,  Zhi-Qiang You,  A. Zech,  
 Igor Ying Zhang,  Xing Zhang,  Yan Zhao,  Ying Zhu,  B. R. Brooks,  
 G. K. L. Chan,  C. J. Cramer,  M. S. Gordon,  W. J. Hehre,  A. Klamt,  
 M. W. Schmidt,  C. D. Sherrill,  D. G. Truhlar,  A. Aspuru-Guzik,  R. Baer,  
 A. T. Bell,  N. A. Besley,  Jeng-Da Chai,  A. E. DePrince, III,  
 R. A. DiStasio Jr.,  A. Dreuw,  B. D. Dunietz,  T. R. Furlani,  
 Chao-Ping Hsu,  Yousung Jung,  Jing Kong,  D. S. Lambrecht,  WanZhen Liang,  
 C. Ochsenfeld,  V. A. Rassolov,  L. V. Slipchenko,  J. E. Subotnik,  
 T. Van Voorhis,  J. M. Herbert,  A. I. Krylov,  P. M. W. Gill,  M. Head-Gordon

 Contributors to earlier versions of Q-Chem not listed above: 
 R. D. Adamson,  B. Austin,  J. Baker,  G. J. O. Beran,  K. Brandhorst,  
 S. T. Brown,  E. F. C. Byrd,  A. K. Chakraborty,  C.-L. Cheng,  
 Siu Hung Chien,  D. M. Chipman,  D. L. Crittenden,  H. Dachsel,  
 R. J. Doerksen,  A. D. Dutoi,  L. Fusti-Molnar,  W. A. Goddard III,  
 A. Golubeva-Zadorozhnaya,  S. R. Gwaltney,  G. Hawkins,  A. Heyden,  
 S. Hirata,  G. Kedziora,  F. J. Keil,  C. Kelley,  Jihan Kim,  R. A. King,  
 R. Z. Khaliullin,  P. P. Korambath,  W. Kurlancheek,  A. M. Lee,  M. S. Lee,  
 S. V. Levchenko,  Ching Yeh Lin,  D. Liotard,  R. C. Lochan,  I. Lotan,  
 P. E. Maslen,  N. Nair,  D. P. O'Neill,  D. Neuhauser,  E. Neuscamman,  
 C. M. Oana,  R. Olson,  B. Peters,  R. Peverati,  P. A. Pieniazek,  
 Y. M. Rhee,  J. Ritchie,  M. A. Rohrdanz,  E. Rosta,  N. J. Russ,  
 H. F. Schaefer III,  N. E. Schultz,  N. Shenvi,  A. C. Simmonett,  A. Sodt,  
 D. Stuck,  K. S. Thanthiriwatte,  V. Vanovschi,  Tao Wang,  A. Warshel,  
 C. F. Williams,  Q. Wu,  X. Xu,  W. Zhang

 Please cite Q-Chem as follows:
 Y. Shao et al., Mol. Phys. 113, 184-215 (2015)
 DOI: 10.1080/00268976.2014.952696

 Q-Chem 5.2.2 for Intel X86 EM64T Linux

 Parts of Q-Chem use Armadillo 8.300.2 (Tropical Shenanigans).
 http://arma.sourceforge.net/

 Q-Chem begins on Mon May 18 15:52:29 2020  

Host: 
0

     Scratch files written to /tmp/scratch//
 Nov2519 |scratch|qcdevops|jenkins|workspace|build_RNUM 6829   
Processing $rem in /clusterfs/mp/software/qchem/config/preferences:
	 MEM_TOTAL  96000 
NAlpha2: 50
NElect   49
Mult     2
Symmetry turned off for PCM/SM12/SMD calculation

Checking the input file for inconsistencies... 	...done.

--------------------------------------------------------------
User input:
--------------------------------------------------------------
$molecule
0 2
O      0.2915310231     -1.2174781732      0.6306762183
C     -0.7303284103     -0.4641276607      0.3877348441
C      1.5864709627     -0.3841808833     -0.2065268490
O     -1.7394665105     -0.7261999243     -0.3574613769
O     -0.3555800445      0.8939615958      0.3708939799
C      1.1123580591      0.9900869668      0.1072872325
Li     -1.8903415573      1.0345700879     -0.8440078107
H      1.5172606642     -0.6967586482     -1.2451908270
H      2.4672232318     -0.7409572507      0.3135270773
H      1.2216299154      1.6908447493     -0.7212636277
H      1.5697926664      1.3969591406      1.0098011392
$end

$rem
job_type = freq
basis = def2-tzvppd
max_scf_cycles = 200
gen_scfman = true
xc_grid = 3
scf_algorithm = diis
resp_charges = true
symmetry = false
sym_ignore = true
method = wb97xv
solvent_method = smd
ideriv = 1
thresh = 14
$end

$smx
solvent other
$end
--------------------------------------------------------------
 ----------------------------------------------------------------
             Standard Nuclear Orientation (Angstroms)
    I     Atom           X                Y                Z
 ----------------------------------------------------------------
    1      O       0.2915310231    -1.2174781732     0.6306762183
    2      C      -0.7303284103    -0.4641276607     0.3877348441
    3      C       1.5864709627    -0.3841808833    -0.2065268490
    4      O      -1.7394665105    -0.7261999243    -0.3574613769
    5      O      -0.3555800445     0.8939615958     0.3708939799
    6      C       1.1123580591     0.9900869668     0.1072872325
    7      Li     -1.8903415573     1.0345700879    -0.8440078107
    8      H       1.5172606642    -0.6967586482    -1.2451908270
    9      H       2.4672232318    -0.7409572507     0.3135270773
   10      H       1.2216299154     1.6908447493    -0.7212636277
   11      H       1.5697926664     1.3969591406     1.0098011392
 ----------------------------------------------------------------
 Nuclear Repulsion Energy =         268.12550305 hartrees
 There are       25 alpha and       24 beta electrons
 Requested basis set is def2-TZVPPD
 There are 119 shells and 321 basis functions

 Total QAlloc Memory Limit  96000 MB
 Mega-Array Size       188 MB
 MEM_STATIC part       192 MB
 
 Citation of the SMD model:
 Marenich, A.V.; Cramer, C.J.; Truhlar, D.G.
 J. Phys. Chem. B 2009, 113, 6378-6396.
 iSolventCode=           0
 Solvent: other                                                           
 
 vradii
            1           2           3           4           5           6
    1   2.2940000   1.8500000   1.8500000   2.2940000   2.2940000   1.8500000
            7           8           9          10          11
    1   2.1476001   1.2000000   1.2000000   1.2000000   1.2000000
 Changing PCM_VDW_RADII to SMD_RADIUS
 Discretize the solute cavity surface with Lebedev spheres
	Using 110 Lebedev grid points for each H atom
	Using 194 Lebedev grid points for other atoms
	Atomic van der Waals radii will be scaled by 1.20
 Remove points where switching function is < 1.0e-08
 Keep 788 surface tesserae and discard 1010 interior tesserae
 Molecular Surface Area = 148.386 Angst**2

                       Distance Matrix (Angstroms)
             O (  1)   C (  2)   C (  3)   O (  4)   O (  5)   C (  6)
   C (  2)  1.292577
   C (  3)  1.752759  2.393136
   O (  4)  2.311433  1.281546  3.346882
   O (  5)  2.223605  1.408945  2.395543  2.251792
   C (  6)  2.412683  2.364082  1.487237  3.360734  1.494514
   Li(  7)  3.465109  2.260291  3.808866  1.832976  1.962460  3.150103
   H (  8)  2.300530  2.787870  1.086884  3.375678  2.941029  2.199680
   H (  9)  2.249732  3.210370  1.083268  4.259892  3.262586  2.207874
   H ( 10)  3.339336  3.111901  2.168823  3.839603  2.077359  1.090641
   H ( 11)  2.934786  3.023436  2.156894  4.162740  2.090040  1.090561
             Li(  7)   H (  8)   H (  9)   H ( 10)
   H (  8)  3.843202
   H (  9)  4.845695  1.825920
   H ( 10)  3.182786  2.462224  2.921636
   H ( 11)  3.942139  3.077564  2.420922  1.790020
 
 A cutoff of  1.0D-14 yielded   6917 shell pairs
 There are     51147 function pairs (     65206 Cartesian)
 Smallest overlap matrix eigenvalue = 7.44E-06
 Guess from superposition of atomic densities
 Warning:  Energy on first SCF cycle will be non-variational
 SAD guess density has 49.000000 electrons

 -----------------------------------------------------------------------
  General SCF calculation program by
  Eric Jon Sundstrom, Paul Horn, Yuezhi Mao, Dmitri Zuev, Alec White,
  David Stuck, Shaama M.S., Shane Yost, Joonho Lee, David Small,
  Daniel Levine, Susi Lehtola, Hugh Burton, Evgeny Epifanovsky,
  Bang C. Huynh
 -----------------------------------------------------------------------
 Exchange:     0.1670 Hartree-Fock + 1.0000 wB97X-V + LR-HF
 Correlation:  1.0000 wB97X-V
 Using SG-3 standard quadrature grid
 Nonlocal Correlation:  VV10 with C = 0.0100 and b = 6.00 and scale = 1.00000
 Grid used for NLC:  SG-1 standard quadrature
 
 Citation of the SMD model:
 Marenich, A.V.; Cramer, C.J.; Truhlar, D.G.
 J. Phys. Chem. B 2009, 113, 6378-6396.
 iSolventCode=           0
 Solvent: other                                                           
 
 vradii
            1           2           3           4           5           6
    1   2.2940000   1.8500000   1.8500000   2.2940000   2.2940000   1.8500000
            7           8           9          10          11
    1   2.1476001   1.2000000   1.2000000   1.2000000   1.2000000
 using 32 threads for integral computing
 -------------------------------------------------------
 OpenMP Integral computing Module                
 Release: version 1.0, May 2013, Q-Chem Inc. Pittsburgh 
 -------------------------------------------------------
 using 32 threads for integral computing
 -------------------------------------------------------
 OpenMP Integral computing Module                
 Release: version 1.0, May 2013, Q-Chem Inc. Pittsburgh 
 -------------------------------------------------------
 -------------------------------------------------------
 OpenMP BLAS3 based DFT computing Module                
 Release: version 1.0, May 2013, Q-Chem Inc. Pittsburgh 
 -------------------------------------------------------
 -------------------------------------------------------
 OpenMP BLAS3 based DFT computing Module                
 Release: version 1.0, May 2013, Q-Chem Inc. Pittsburgh 
 -------------------------------------------------------
 -------------------------------------------------------
 OpenMP BLAS3 based DFT computing Module                
 Release: version 1.0, May 2013, Q-Chem Inc. Pittsburgh 
 -------------------------------------------------------
 A unrestricted SCF calculation will be
 performed using DIIS
 SCF converges when DIIS error is below 1.0e-08
 ---------------------------------------
  Cycle       Energy         DIIS error
 ---------------------------------------
    1    -351.0028279824      1.22e-02  
    2    -349.7649936046      2.01e-03  
    3    -349.7550595168      2.29e-03  
    4    -349.9272109269      1.72e-04  
    5    -349.9282520177      1.30e-04  
    6    -349.9290393354      3.48e-05  
    7    -349.9292166821      1.65e-05  
    8    -349.9292932507      1.17e-05  
    9    -349.9293350709      6.50e-06  
   10    -349.9293488531      3.92e-06  
   11    -349.9293553092      2.04e-06  
   12    -349.9293586025      1.49e-06  
   13    -349.9293596622      6.02e-07  
   14    -349.9293598507      2.25e-07  
   15    -349.9293598718      7.57e-08  
   16    -349.9293598736      3.56e-08  
   17    -349.9293598739      1.15e-08  
   18    -349.9293598740      3.75e-09  Convergence criterion met
 ---------------------------------------
 SCF time:   CPU 1990.95s  wall 76.00s 
<S^2> =          0.765251829
(3)  G-ENP(liq) elect-nuc-pol free energy of system     -349.929359874 a.u.
(4)  G-CDS(liq) cavity-dispersion-solvent structure 
     free energy                                               -1.7483 kcal/mol
(6)  G-S(liq) free energy of system                     -349.932146021 a.u.
 SCF   energy in the final basis set =     -349.9293598740
 Total energy in the final basis set =     -349.9321460212
 
 --------------------------------------------------------------
 
                    Orbital Energies (a.u.)
 --------------------------------------------------------------
 
 Alpha MOs
 -- Occupied --
-19.2367 -19.2118 -19.1655 -10.3831 -10.3160 -10.2944  -2.0986  -1.2288
 -1.1137  -1.0988  -0.8869  -0.7509  -0.6701  -0.6146  -0.6018  -0.5743
 -0.5458  -0.5074  -0.4951  -0.4717  -0.4304  -0.4116  -0.3922  -0.3734
 -0.1977
 -- Virtual --
  0.0296   0.0459   0.0478   0.0550   0.0884   0.0987   0.1022   0.1132
  0.1186   0.1254   0.1336   0.1412   0.1485   0.1542   0.1663   0.1719
  0.1750   0.1776   0.1861   0.1993   0.2075   0.2251   0.2323   0.2456
  0.2666   0.2712   0.2754   0.2849   0.3005   0.3097   0.3124   0.3236
  0.3369   0.3427   0.3539   0.3597   0.3644   0.3669   0.3723   0.3840
  0.3878   0.3952   0.3990   0.4053   0.4176   0.4217   0.4258   0.4317
  0.4393   0.4564   0.4604   0.4688   0.4761   0.4884   0.4926   0.4988
  0.5068   0.5112   0.5204   0.5244   0.5269   0.5449   0.5556   0.5718
  0.5747   0.5797   0.5924   0.6026   0.6257   0.6412   0.6489   0.6531
  0.6633   0.6731   0.6949   0.7112   0.7278   0.7414   0.7501   0.7571
  0.7607   0.7719   0.7840   0.7933   0.7984   0.8072   0.8081   0.8258
  0.8454   0.8509   0.8655   0.8845   0.8927   0.9196   0.9358   0.9519
  0.9601   0.9683   0.9708   1.0097   1.0241   1.0447   1.0587   1.0777
  1.0965   1.1115   1.1364   1.1547   1.1713   1.1905   1.2166   1.2281
  1.2462   1.2579   1.2895   1.2915   1.3175   1.3429   1.3626   1.3714
  1.3774   1.3964   1.4280   1.4363   1.4566   1.4844   1.5025   1.5220
  1.5307   1.5482   1.6109   1.6540   1.6825   1.7008   1.7343   1.7477
  1.7529   1.7774   1.8645   1.8765   1.8975   1.9214   1.9347   1.9656
  2.0166   2.0347   2.0528   2.0848   2.1124   2.2135   2.2249   2.2549
  2.2830   2.2973   2.3197   2.3540   2.3990   2.4148   2.4367   2.4559
  2.5553   2.5798   2.6547   2.6708   2.7003   2.7715   2.7986   2.8445
  2.8982   2.9122   2.9401   2.9644   2.9994   3.0232   3.0525   3.0599
  3.1017   3.1339   3.1700   3.1905   3.2014   3.2137   3.2654   3.2834
  3.3184   3.3474   3.3506   3.3675   3.3834   3.4103   3.4310   3.4625
  3.4725   3.4904   3.5209   3.5469   3.5581   3.5789   3.5876   3.6082
  3.6591   3.6727   3.7160   3.7579   3.7761   3.7824   3.7977   3.8392
  3.8736   3.9226   3.9463   3.9551   3.9979   4.0177   4.0727   4.0934
  4.1009   4.1582   4.2578   4.2934   4.3071   4.3601   4.3634   4.3942
  4.4221   4.4325   4.5340   4.5844   4.6820   4.7312   4.7602   4.7675
  4.8323   4.8616   4.9377   4.9534   5.0204   5.0595   5.0726   5.1047
  5.1867   5.3012   5.3206   5.3245   5.3602   5.3858   5.4316   5.4637
  5.5046   5.5289   5.5680   5.6124   5.6506   5.6689   5.6818   5.6996
  5.7450   5.7621   5.8191   5.8552   5.8788   5.9412   5.9827   6.1002
  6.1123   6.1262   6.2409   6.2712   6.3137   6.3299   6.3855   6.5187
  6.5446   6.6625   6.7287   6.8110   6.8641   6.9406   7.0035   7.0246
  7.0716   7.1341   7.1615   7.2954   7.3480   7.4011   7.4716   7.5579
  7.5982  14.9705  23.3268  23.5550  23.6346  44.2395  44.4046  44.4534
 
 Beta MOs
 -- Occupied --
-19.2358 -19.2112 -19.1620 -10.3774 -10.3155 -10.2888  -2.0983  -1.2227
 -1.1109  -1.0905  -0.8759  -0.7428  -0.6594  -0.6088  -0.5907  -0.5673
 -0.5361  -0.4945  -0.4913  -0.4666  -0.4247  -0.4083  -0.3784  -0.3687
 -- Virtual --
  0.0297   0.0463   0.0486   0.0518   0.0666   0.0914   0.1038   0.1151
  0.1215   0.1295   0.1315   0.1427   0.1450   0.1532   0.1573   0.1714
  0.1773   0.1791   0.1805   0.1949   0.2016   0.2130   0.2284   0.2355
  0.2497   0.2691   0.2738   0.2793   0.2879   0.3028   0.3117   0.3157
  0.3258   0.3399   0.3449   0.3565   0.3612   0.3677   0.3690   0.3740
  0.3871   0.3898   0.3966   0.4009   0.4070   0.4192   0.4242   0.4293
  0.4336   0.4411   0.4589   0.4624   0.4722   0.4780   0.4889   0.4938
  0.5017   0.5088   0.5137   0.5219   0.5262   0.5291   0.5475   0.5566
  0.5741   0.5770   0.5814   0.5947   0.6046   0.6271   0.6425   0.6506
  0.6552   0.6647   0.6742   0.6969   0.7129   0.7314   0.7432   0.7524
  0.7580   0.7625   0.7735   0.7869   0.7944   0.8001   0.8095   0.8102
  0.8275   0.8467   0.8522   0.8686   0.8865   0.8941   0.9207   0.9375
  0.9539   0.9616   0.9696   0.9727   1.0103   1.0251   1.0470   1.0602
  1.0810   1.0982   1.1145   1.1381   1.1581   1.1731   1.1965   1.2191
  1.2310   1.2476   1.2608   1.2930   1.2942   1.3216   1.3453   1.3639
  1.3720   1.3816   1.3987   1.4303   1.4395   1.4608   1.4884   1.5074
  1.5252   1.5344   1.5515   1.6151   1.6570   1.6842   1.7036   1.7373
  1.7490   1.7566   1.7797   1.8706   1.8894   1.9032   1.9303   1.9396
  1.9705   2.0217   2.0391   2.0582   2.0892   2.1154   2.2197   2.2275
  2.2598   2.2888   2.3025   2.3232   2.3593   2.4028   2.4202   2.4429
  2.4616   2.5608   2.5846   2.6579   2.6755   2.7040   2.7774   2.8022
  2.8490   2.9014   2.9155   2.9430   2.9702   3.0050   3.0259   3.0570
  3.0640   3.1113   3.1401   3.1761   3.2003   3.2088   3.2167   3.2710
  3.2920   3.3273   3.3541   3.3637   3.3785   3.3913   3.4215   3.4400
  3.4739   3.4786   3.4975   3.5309   3.5523   3.5629   3.5854   3.5929
  3.6161   3.6669   3.6788   3.7204   3.7631   3.7845   3.7899   3.8036
  3.8418   3.8794   3.9264   3.9492   3.9590   4.0006   4.0218   4.0760
  4.0965   4.1056   4.1621   4.2615   4.2966   4.3080   4.3608   4.3638
  4.3968   4.4236   4.4343   4.5389   4.5871   4.6841   4.7358   4.7641
  4.7695   4.8351   4.8655   4.9397   4.9578   5.0229   5.0636   5.0751
  5.1101   5.1896   5.3072   5.3243   5.3303   5.3623   5.3895   5.4333
  5.4672   5.5070   5.5315   5.5709   5.6149   5.6539   5.6726   5.6838
  5.7025   5.7476   5.7640   5.8209   5.8585   5.8822   5.9442   5.9850
  6.1015   6.1125   6.1283   6.2480   6.2727   6.3152   6.3330   6.3890
  6.5232   6.5501   6.6736   6.7374   6.8168   6.8643   6.9436   7.0050
  7.0345   7.0723   7.1362   7.1621   7.2982   7.3531   7.4035   7.4725
  7.5588   7.5990  14.9707  23.3306  23.5613  23.6389  44.2427  44.4061
 44.4543
 --------------------------------------------------------------
 
          Ground-State Mulliken Net Atomic Charges

     Atom                 Charge (a.u.)    Spin (a.u.)
  --------------------------------------------------------
      1 O                    -0.264417      -0.187451
      2 C                     0.316829       0.686156
      3 C                    -0.185845       0.427198
      4 O                    -0.766689       0.080917
      5 O                    -0.447941      -0.079217
      6 C                     0.102051       0.046758
      7 Li                    0.867378       0.013768
      8 H                     0.114035       0.007999
      9 H                     0.118883      -0.001211
     10 H                     0.080863       0.000182
     11 H                     0.064853       0.004900
  --------------------------------------------------------
  Sum of atomic charges =    -0.000000
  Sum of spin   charges =     1.000000

  Building new vdw surfaces
         Merz-Kollman RESP Net Atomic Charges

     Atom                 Charge (a.u.)
  ----------------------------------------
      1 O                    -0.312123
      2 C                     0.307728
      3 C                    -0.393258
      4 O                    -0.706686
      5 O                    -0.443475
      6 C                     0.103032
      7 Li                    0.855521
      8 H                     0.195646
      9 H                     0.195646
     10 H                     0.098985
     11 H                     0.098985
  ----------------------------------------
  Sum of atomic charges =     0.000000

  Related Dipole Moment =     8.1755 (X  0.0027 Y  7.2839 Z -3.7124)

 -----------------------------------------------------------------
                    Cartesian Multipole Moments
 -----------------------------------------------------------------
    Charge (ESU x 10^10)
                -0.0000
    Dipole Moment (Debye)
         X      -0.0922      Y       7.3497      Z      -3.8019
       Tot       8.2753
    Quadrupole Moments (Debye-Ang)
        XX     -30.4796     XY      -9.9949     YY     -38.1045
        XZ       4.9185     YZ      -3.6532     ZZ     -35.6781
    Octopole Moments (Debye-Ang^2)
       XXX     -10.7535    XXY      26.6025    XYY      -4.9995
       YYY      25.2713    XXZ     -10.6415    XYZ      10.7085
       YYZ     -10.7733    XZZ      -4.6390    YZZ      10.1326
       ZZZ     -16.4378
    Hexadecapole Moments (Debye-Ang^3)
      XXXX    -345.0804   XXXY     -75.3617   XXYY     -81.4070
      XYYY     -31.5256   YYYY    -217.2715   XXXZ      20.4239
      XXYZ     -16.2946   XYYZ       4.6084   YYYZ      -1.0737
      XXZZ     -65.6604   XYZZ     -14.3180   YYZZ     -47.0582
      XZZZ      -1.5972   YZZZ       2.0981   ZZZZ     -88.1087
 -----------------------------------------------------------------
 Calculating analytic gradient of the SCF energy
 Gradient of CDS energy
            1           2           3           4           5           6
    1   0.0010381  -0.0007845   0.0009408  -0.0004515   0.0002282   0.0000891
    2   0.0004318  -0.0011305  -0.0010453   0.0009349  -0.0001444   0.0013397
    3  -0.0003755   0.0013788  -0.0003583  -0.0005527  -0.0008204   0.0004009
            7           8           9          10          11
    1  -0.0001672  -0.0001556  -0.0003189  -0.0002543  -0.0001641
    2  -0.0000457   0.0000643   0.0000384  -0.0002297  -0.0002136
    3  -0.0000178   0.0002486   0.0001173   0.0000488  -0.0000697
 Gradient of SCF Energy
            1           2           3           4           5           6
    1  -0.0030820   0.0008220  -0.0003368   0.0016198   0.0007234  -0.0047254
    2   0.0000816   0.0011087   0.0008525  -0.0060633  -0.0045828  -0.0091673
    3   0.0017996  -0.0042642   0.0023289   0.0059361   0.0028804   0.0028408
            7           8           9          10          11
    1  -0.0004846   0.0000150   0.0018698   0.0019733   0.0016055
    2   0.0083286  -0.0001033   0.0003078   0.0068680   0.0023695
    3  -0.0050226  -0.0032752   0.0002512  -0.0076657   0.0041908
 Max gradient component =       9.167E-03
 RMS gradient           =       3.903E-03
 Computing fast CPCM-SWIG gradient
 Updating gradient with PCM contributions...
 -- total gradient after adding PCM contribution --
---------------------------------------------------
  Atom         X              Y              Z     
---------------------------------------------------
   1      -0.000066      -0.000126      -0.000002
   2       0.000129       0.000075       0.000039
   3       0.000162       0.000067      -0.000059
   4      -0.000082       0.000069       0.000030
   5       0.000077      -0.000092       0.000062
   6      -0.000145       0.000062      -0.000024
   7      -0.000017      -0.000020      -0.000095
   8      -0.000054      -0.000011       0.000008
   9      -0.000025      -0.000020       0.000030
  10       0.000045      -0.000015      -0.000001
  11      -0.000025       0.000012       0.000011
---------------------------------------------------
 Number of fixed atoms: 0
 Gradient time:  CPU 335.25 s  wall 15.76 s
 ######################################################
 ######################################################
 # Starting finite difference calculation for IDERIV  #
 Finite diff step size:  1.88973e-03 a.u.
 ----------------------------------------------------------------
             Standard Nuclear Orientation (Angstroms)
    I     Atom           X                Y                Z
 ----------------------------------------------------------------
    1      O       0.2925310231    -1.2174781732     0.6306762183
    2      C      -0.7303284103    -0.4641276607     0.3877348441
    3      C       1.5864709627    -0.3841808833    -0.2065268490
    4      O      -1.7394665105    -0.7261999243    -0.3574613769
    5      O      -0.3555800445     0.8939615958     0.3708939799
    6      C       1.1123580591     0.9900869668     0.1072872325
    7      Li     -1.8903415573     1.0345700879    -0.8440078107
    8      H       1.5172606642    -0.6967586482    -1.2451908270
    9      H       2.4672232318    -0.7409572507     0.3135270773
   10      H       1.2216299154     1.6908447493    -0.7212636277
   11      H       1.5697926664     1.3969591406     1.0098011392
 ----------------------------------------------------------------
 Nuclear Repulsion Energy =         268.11440967 hartrees
 There are       25 alpha and       24 beta electrons
 Discretize the solute cavity surface with Lebedev spheres
	Using 110 Lebedev grid points for each H atom
	Using 194 Lebedev grid points for other atoms
	Atomic van der Waals radii will be scaled by 1.20
 Remove points where switching function is < 1.0e-08
 Keep 788 surface tesserae and discard 1010 interior tesserae
 Molecular Surface Area = 148.387 Angst**2

                       Distance Matrix (Angstroms)
             O (  1)   C (  2)   C (  3)   O (  4)   O (  5)   C (  6)
   C (  2)  1.293367
   C (  3)  1.752020  2.393136
   O (  4)  2.312311  1.281546  3.346882
   O (  5)  2.223896  1.408945  2.395543  2.251792
   C (  6)  2.412342  2.364082  1.487237  3.360734  1.494514
   Li(  7)  3.465739  2.260291  3.808866  1.832976  1.962460  3.150103
   H (  8)  2.299998  2.787870  1.086884  3.375678  2.941029  2.199680
   H (  9)  2.248765  3.210370  1.083268  4.259892  3.262586  2.207874
   H ( 10)  3.339058  3.111901  2.168823  3.839603  2.077359  1.090641
   H ( 11)  2.934351  3.023436  2.156894  4.162740  2.090040  1.090561
             Li(  7)   H (  8)   H (  9)   H ( 10)
   H (  8)  3.843202
   H (  9)  4.845695  1.825920
   H ( 10)  3.182786  2.462224  2.921636
   H ( 11)  3.942139  3.077564  2.420922  1.790020
 
 Requested basis set is def2-TZVPPD
 There are 119 shells and 321 basis functions
 A cutoff of  1.0D-14 yielded   6917 shell pairs
 There are     51147 function pairs (     65206 Cartesian)
 Smallest overlap matrix eigenvalue = 7.44E-06
 Guess MOs from SCF MO coefficient file

 -----------------------------------------------------------------------
  General SCF calculation program by
  Eric Jon Sundstrom, Paul Horn, Yuezhi Mao, Dmitri Zuev, Alec White,
  David Stuck, Shaama M.S., Shane Yost, Joonho Lee, David Small,
  Daniel Levine, Susi Lehtola, Hugh Burton, Evgeny Epifanovsky,
  Bang C. Huynh
 -----------------------------------------------------------------------
 Exchange:     0.1670 Hartree-Fock + 1.0000 wB97X-V + LR-HF
 Correlation:  1.0000 wB97X-V
 Using SG-3 standard quadrature grid
 Nonlocal Correlation:  VV10 with C = 0.0100 and b = 6.00 and scale = 1.00000
 Grid used for NLC:  SG-1 standard quadrature
 
 Citation of the SMD model:
 Marenich, A.V.; Cramer, C.J.; Truhlar, D.G.
 J. Phys. Chem. B 2009, 113, 6378-6396.
 iSolventCode=           0
 Solvent: other                                                           
 
 vradii
            1           2           3           4           5           6
    1   2.2940000   1.8500000   1.8500000   2.2940000   2.2940000   1.8500000
            7           8           9          10          11
    1   2.1476001   1.2000000   1.2000000   1.2000000   1.2000000
 using 32 threads for integral computing
 -------------------------------------------------------
 OpenMP Integral computing Module                
 Release: version 1.0, May 2013, Q-Chem Inc. Pittsburgh 
 -------------------------------------------------------
 using 32 threads for integral computing
 -------------------------------------------------------
 OpenMP Integral computing Module                
 Release: version 1.0, May 2013, Q-Chem Inc. Pittsburgh 
 -------------------------------------------------------
 -------------------------------------------------------
 OpenMP BLAS3 based DFT computing Module                
 Release: version 1.0, May 2013, Q-Chem Inc. Pittsburgh 
 -------------------------------------------------------
 -------------------------------------------------------
 OpenMP BLAS3 based DFT computing Module                
 Release: version 1.0, May 2013, Q-Chem Inc. Pittsburgh 
 -------------------------------------------------------
 -------------------------------------------------------
 OpenMP BLAS3 based DFT computing Module                
 Release: version 1.0, May 2013, Q-Chem Inc. Pittsburgh 
 -------------------------------------------------------
 A unrestricted SCF calculation will be
 performed using Roothaan-Hall, DIIS
 SCF converges when DIIS error is below 1.0e-08
 ---------------------------------------
  Cycle       Energy         DIIS error
 ---------------------------------------
    1    -349.8182477389      1.71e-04  Roothaan Step
 ---------------------------------------
  Cycle       Energy         DIIS error
 ---------------------------------------
    1    -349.9257932994      2.05e-04  
    2    -349.9280430076      1.78e-04  
    3    -349.9292235836      4.52e-05  
    4    -349.9293237214      1.63e-05  
    5    -349.9293489874      8.39e-06  
    6    -349.9293568133      2.67e-06  
    7    -349.9293595312      2.25e-06  
    8    -349.9293606233      1.40e-06  
    9    -349.9293614920      8.47e-07  
   10    -349.9293618756      5.29e-07  
   11    -349.9293620208      2.46e-07  
   12    -349.9293620518      1.18e-07  
   13    -349.9293620555      4.42e-08  
   14    -349.9293620562      1.51e-08  
   15    -349.9293620562      7.75e-09  Convergence criterion met
 ---------------------------------------
 SCF time:   CPU 1817.17s  wall 69.00s 
<S^2> =          0.765219888
(3)  G-ENP(liq) elect-nuc-pol free energy of system     -349.929362056 a.u.
(4)  G-CDS(liq) cavity-dispersion-solvent structure 
     free energy                                               -1.7471 kcal/mol
(6)  G-S(liq) free energy of system                     -349.932146237 a.u.
 SCF   energy in the final basis set =     -349.9293620562
 Total energy in the final basis set =     -349.9321462372
 
 --------------------------------------------------------------
 
                    Orbital Energies (a.u.)
 --------------------------------------------------------------
 
 Alpha MOs
 -- Occupied --
-19.2366 -19.2119 -19.1654 -10.3829 -10.3160 -10.2947  -2.0986  -1.2287
 -1.1135  -1.0987  -0.8870  -0.7509  -0.6701  -0.6146  -0.6018  -0.5742
 -0.5457  -0.5074  -0.4952  -0.4717  -0.4304  -0.4115  -0.3922  -0.3734
 -0.1976
 -- Virtual --
  0.0296   0.0459   0.0478   0.0550   0.0883   0.0986   0.1022   0.1132
  0.1187   0.1254   0.1336   0.1412   0.1485   0.1542   0.1663   0.1719
  0.1750   0.1776   0.1861   0.1993   0.2076   0.2251   0.2323   0.2456
  0.2666   0.2712   0.2754   0.2849   0.3005   0.3097   0.3124   0.3236
  0.3369   0.3427   0.3539   0.3596   0.3644   0.3669   0.3722   0.3840
  0.3878   0.3952   0.3991   0.4053   0.4175   0.4217   0.4258   0.4316
  0.4393   0.4563   0.4604   0.4687   0.4761   0.4884   0.4925   0.4987
  0.5068   0.5112   0.5204   0.5244   0.5269   0.5448   0.5556   0.5717
  0.5747   0.5797   0.5923   0.6026   0.6257   0.6411   0.6489   0.6531
  0.6633   0.6731   0.6949   0.7112   0.7277   0.7414   0.7501   0.7571
  0.7607   0.7719   0.7839   0.7933   0.7983   0.8072   0.8081   0.8259
  0.8454   0.8509   0.8655   0.8845   0.8927   0.9196   0.9358   0.9519
  0.9601   0.9683   0.9708   1.0097   1.0242   1.0447   1.0587   1.0777
  1.0966   1.1115   1.1364   1.1548   1.1711   1.1905   1.2166   1.2281
  1.2462   1.2580   1.2895   1.2915   1.3176   1.3428   1.3626   1.3714
  1.3774   1.3964   1.4279   1.4363   1.4566   1.4844   1.5024   1.5220
  1.5307   1.5482   1.6109   1.6539   1.6825   1.7008   1.7343   1.7477
  1.7530   1.7774   1.8645   1.8764   1.8975   1.9216   1.9347   1.9656
  2.0166   2.0347   2.0528   2.0848   2.1124   2.2136   2.2250   2.2549
  2.2831   2.2973   2.3196   2.3540   2.3991   2.4149   2.4366   2.4562
  2.5552   2.5797   2.6545   2.6709   2.7002   2.7715   2.7986   2.8446
  2.8981   2.9121   2.9402   2.9644   2.9994   3.0231   3.0524   3.0598
  3.1017   3.1338   3.1700   3.1906   3.2014   3.2136   3.2652   3.2834
  3.3184   3.3473   3.3505   3.3675   3.3834   3.4103   3.4309   3.4625
  3.4725   3.4904   3.5211   3.5468   3.5581   3.5787   3.5877   3.6081
  3.6591   3.6725   3.7160   3.7578   3.7761   3.7825   3.7977   3.8391
  3.8737   3.9225   3.9462   3.9551   3.9979   4.0177   4.0727   4.0933
  4.1003   4.1582   4.2575   4.2934   4.3071   4.3600   4.3635   4.3942
  4.4220   4.4326   4.5342   4.5850   4.6821   4.7312   4.7602   4.7674
  4.8323   4.8615   4.9377   4.9534   5.0205   5.0595   5.0725   5.1046
  5.1866   5.3013   5.3206   5.3245   5.3602   5.3858   5.4316   5.4636
  5.5048   5.5289   5.5679   5.6123   5.6505   5.6688   5.6818   5.6996
  5.7449   5.7622   5.8191   5.8551   5.8787   5.9412   5.9827   6.0999
  6.1123   6.1259   6.2408   6.2712   6.3136   6.3298   6.3849   6.5185
  6.5441   6.6623   6.7285   6.8109   6.8643   6.9404   7.0036   7.0246
  7.0714   7.1338   7.1617   7.2949   7.3480   7.4009   7.4716   7.5580
  7.5981  14.9705  23.3259  23.5535  23.6344  44.2393  44.4047  44.4535
 
 Beta MOs
 -- Occupied --
-19.2358 -19.2113 -19.1619 -10.3772 -10.3155 -10.2891  -2.0983  -1.2225
 -1.1108  -1.0904  -0.8760  -0.7429  -0.6595  -0.6088  -0.5907  -0.5672
 -0.5360  -0.4944  -0.4914  -0.4666  -0.4248  -0.4083  -0.3784  -0.3687
 -- Virtual --
  0.0298   0.0463   0.0486   0.0518   0.0667   0.0914   0.1038   0.1152
  0.1215   0.1295   0.1315   0.1428   0.1450   0.1532   0.1573   0.1714
  0.1773   0.1791   0.1805   0.1950   0.2016   0.2131   0.2284   0.2355
  0.2497   0.2691   0.2738   0.2793   0.2879   0.3028   0.3117   0.3157
  0.3258   0.3399   0.3449   0.3565   0.3612   0.3677   0.3690   0.3740
  0.3871   0.3898   0.3966   0.4010   0.4070   0.4192   0.4241   0.4292
  0.4335   0.4411   0.4589   0.4624   0.4721   0.4780   0.4889   0.4938
  0.5016   0.5088   0.5136   0.5219   0.5262   0.5291   0.5475   0.5566
  0.5740   0.5770   0.5814   0.5947   0.6046   0.6271   0.6424   0.6506
  0.6552   0.6647   0.6742   0.6969   0.7129   0.7313   0.7432   0.7524
  0.7580   0.7625   0.7734   0.7868   0.7944   0.8001   0.8095   0.8102
  0.8275   0.8468   0.8522   0.8687   0.8865   0.8941   0.9206   0.9375
  0.9539   0.9616   0.9696   0.9727   1.0103   1.0252   1.0470   1.0602
  1.0811   1.0982   1.1145   1.1380   1.1582   1.1730   1.1965   1.2191
  1.2310   1.2476   1.2608   1.2930   1.2942   1.3216   1.3453   1.3640
  1.3720   1.3816   1.3987   1.4303   1.4396   1.4607   1.4884   1.5073
  1.5251   1.5343   1.5515   1.6151   1.6569   1.6842   1.7035   1.7373
  1.7489   1.7566   1.7797   1.8707   1.8894   1.9032   1.9305   1.9396
  1.9705   2.0217   2.0391   2.0583   2.0892   2.1154   2.2198   2.2275
  2.2598   2.2890   2.3025   2.3231   2.3593   2.4029   2.4204   2.4428
  2.4620   2.5607   2.5845   2.6577   2.6756   2.7040   2.7773   2.8023
  2.8490   2.9013   2.9155   2.9431   2.9702   3.0050   3.0258   3.0570
  3.0639   3.1113   3.1400   3.1762   3.2004   3.2088   3.2166   3.2708
  3.2920   3.3273   3.3539   3.3636   3.3785   3.3912   3.4215   3.4400
  3.4739   3.4785   3.4974   3.5311   3.5522   3.5629   3.5852   3.5930
  3.6160   3.6668   3.6787   3.7203   3.7630   3.7845   3.7901   3.8036
  3.8417   3.8795   3.9263   3.9491   3.9590   4.0006   4.0218   4.0760
  4.0965   4.1050   4.1621   4.2612   4.2966   4.3079   4.3607   4.3639
  4.3968   4.4236   4.4344   4.5391   4.5876   4.6841   4.7358   4.7640
  4.7694   4.8351   4.8654   4.9397   4.9578   5.0231   5.0636   5.0751
  5.1100   5.1895   5.3073   5.3243   5.3303   5.3623   5.3895   5.4332
  5.4671   5.5073   5.5315   5.5708   5.6148   5.6538   5.6725   5.6837
  5.7025   5.7475   5.7641   5.8208   5.8584   5.8821   5.9442   5.9850
  6.1013   6.1126   6.1280   6.2480   6.2727   6.3151   6.3329   6.3884
  6.5230   6.5496   6.6735   6.7372   6.8167   6.8644   6.9434   7.0052
  7.0345   7.0720   7.1359   7.1623   7.2977   7.3532   7.4033   7.4725
  7.5589   7.5989  14.9707  23.3298  23.5598  23.6387  44.2425  44.4062
 44.4544
 --------------------------------------------------------------
 
          Ground-State Mulliken Net Atomic Charges

     Atom                 Charge (a.u.)    Spin (a.u.)
  --------------------------------------------------------
      1 O                    -0.264130      -0.187765
      2 C                     0.315157       0.689040
      3 C                    -0.183972       0.424413
      4 O                    -0.766565       0.081096
      5 O                    -0.447556      -0.079606
      6 C                     0.101579       0.047107
      7 Li                    0.867273       0.013866
      8 H                     0.113805       0.008017
      9 H                     0.118732      -0.001190
     10 H                     0.080840       0.000125
     11 H                     0.064836       0.004896
  --------------------------------------------------------
  Sum of atomic charges =    -0.000000
  Sum of spin   charges =     1.000000

  Building new vdw surfaces
         Merz-Kollman RESP Net Atomic Charges

     Atom                 Charge (a.u.)
  ----------------------------------------
      1 O                    -0.312138
      2 C                     0.305868
      3 C                    -0.393388
      4 O                    -0.706283
      5 O                    -0.443227
      6 C                     0.101519
      7 Li                    0.855557
      8 H                     0.196388
      9 H                     0.196388
     10 H                     0.099658
     11 H                     0.099658
  ----------------------------------------
  Sum of atomic charges =     0.000000

  Related Dipole Moment =     8.1804 (X  0.0177 Y  7.2859 Z -3.7194)

 -----------------------------------------------------------------
                    Cartesian Multipole Moments
 -----------------------------------------------------------------
    Charge (ESU x 10^10)
                -0.0000
    Dipole Moment (Debye)
         X      -0.0758      Y       7.3513      Z      -3.8083
       Tot       8.2796
    Quadrupole Moments (Debye-Ang)
        XX     -30.4652     XY      -9.9990     YY     -38.1051
        XZ       4.9168     YZ      -3.6511     ZZ     -35.6877
    Octopole Moments (Debye-Ang^2)
       XXX     -10.6785    XXY      26.6074    XYY      -4.9939
       YYY      25.2800    XXZ     -10.6598    XYZ      10.7085
       YYZ     -10.7753    XZZ      -4.6166    YZZ      10.1395
       ZZZ     -16.4583
    Hexadecapole Moments (Debye-Ang^3)
      XXXX    -344.9345   XXXY     -75.3645   XXYY     -81.4052
      XYYY     -31.5104   YYYY    -217.2822   XXXZ      20.3883
      XXYZ     -16.2918   XYYZ       4.6007   YYYZ      -1.0709
      XXZZ     -65.6690   XYZZ     -14.3202   YYZZ     -47.0673
      XZZZ      -1.6097   YZZZ       2.1087   ZZZZ     -88.1619
 -----------------------------------------------------------------
 Calculating analytic gradient of the SCF energy
 Gradient of CDS energy
            1           2           3           4           5           6
    1   0.0010428  -0.0007890   0.0009408  -0.0004515   0.0002282   0.0000891
    2   0.0004279  -0.0011269  -0.0010445   0.0009349  -0.0001444   0.0013396
    3  -0.0003740   0.0013775  -0.0003589  -0.0005527  -0.0008204   0.0004009
            7           8           9          10          11
    1  -0.0001672  -0.0001556  -0.0003191  -0.0002543  -0.0001641
    2  -0.0000457   0.0000643   0.0000380  -0.0002297  -0.0002136
    3  -0.0000178   0.0002486   0.0001177   0.0000488  -0.0000697
 Gradient of SCF Energy
            1           2           3           4           5           6
    1  -0.0031637   0.0007491   0.0000272   0.0015502   0.0005187  -0.0046337
    2  -0.0002895   0.0012254   0.0012029  -0.0059710  -0.0046066  -0.0093137
    3   0.0022670  -0.0047624   0.0020783   0.0061274   0.0029730   0.0028390
            7           8           9          10          11
    1  -0.0004778   0.0000081   0.0018684   0.0019457   0.0016079
    2   0.0083439  -0.0001208   0.0002646   0.0068869   0.0023778
    3  -0.0050347  -0.0033042   0.0002911  -0.0076797   0.0042051
 Max gradient component =       9.314E-03
 RMS gradient           =       3.946E-03
 Computing fast CPCM-SWIG gradient
 Updating gradient with PCM contributions...
 -- total gradient after adding PCM contribution --
---------------------------------------------------
  Atom         X              Y              Z     
---------------------------------------------------
   1      -0.000163      -0.000491       0.000476
   2       0.000068       0.000198      -0.000479
   3       0.000571       0.000394      -0.000331
   4      -0.000144       0.000164       0.000220
   5      -0.000122      -0.000127       0.000159
   6      -0.000052      -0.000063      -0.000029
   7      -0.000018      -0.000008      -0.000101
   8      -0.000063      -0.000019       0.000012
   9      -0.000062      -0.000054       0.000060
  10       0.000013      -0.000009      -0.000000
  11      -0.000029       0.000016       0.000012
---------------------------------------------------
 Number of fixed atoms: 0
 Gradient time:  CPU 334.11 s  wall 15.71 s
 ----------------------------------------------------------------
             Standard Nuclear Orientation (Angstroms)
    I     Atom           X                Y                Z
 ----------------------------------------------------------------
    1      O       0.2905310231    -1.2174781732     0.6306762183
    2      C      -0.7303284103    -0.4641276607     0.3877348441
    3      C       1.5864709627    -0.3841808833    -0.2065268490
    4      O      -1.7394665105    -0.7261999243    -0.3574613769
    5      O      -0.3555800445     0.8939615958     0.3708939799
    6      C       1.1123580591     0.9900869668     0.1072872325
    7      Li     -1.8903415573     1.0345700879    -0.8440078107
    8      H       1.5172606642    -0.6967586482    -1.2451908270
    9      H       2.4672232318    -0.7409572507     0.3135270773
   10      H       1.2216299154     1.6908447493    -0.7212636277
   11      H       1.5697926664     1.3969591406     1.0098011392
 ----------------------------------------------------------------
 Nuclear Repulsion Energy =         268.13661037 hartrees
 There are       25 alpha and       24 beta electrons
 Discretize the solute cavity surface with Lebedev spheres
	Using 110 Lebedev grid points for each H atom
	Using 194 Lebedev grid points for other atoms
	Atomic van der Waals radii will be scaled by 1.20
 Remove points where switching function is < 1.0e-08
 Keep 788 surface tesserae and discard 1010 interior tesserae
 Molecular Surface Area = 148.384 Angst**2

                       Distance Matrix (Angstroms)
             O (  1)   C (  2)   C (  3)   O (  4)   O (  5)   C (  6)
   C (  2)  1.291786
   C (  3)  1.753498  2.393136
   O (  4)  2.310554  1.281546  3.346882
   O (  5)  2.223314  1.408945  2.395543  2.251792
   C (  6)  2.413023  2.364082  1.487237  3.360734  1.494514
   Li(  7)  3.464480  2.260291  3.808866  1.832976  1.962460  3.150103
   H (  8)  2.301063  2.787870  1.086884  3.375678  2.941029  2.199680
   H (  9)  2.250699  3.210370  1.083268  4.259892  3.262586  2.207874
   H ( 10)  3.339615  3.111901  2.168823  3.839603  2.077359  1.090641
   H ( 11)  2.935222  3.023436  2.156894  4.162740  2.090040  1.090561
             Li(  7)   H (  8)   H (  9)   H ( 10)
   H (  8)  3.843202
   H (  9)  4.845695  1.825920
   H ( 10)  3.182786  2.462224  2.921636
   H ( 11)  3.942139  3.077564  2.420922  1.790020
 
 Requested basis set is def2-TZVPPD
 There are 119 shells and 321 basis functions
 A cutoff of  1.0D-14 yielded   6917 shell pairs
 There are     51147 function pairs (     65206 Cartesian)
 Smallest overlap matrix eigenvalue = 7.44E-06
 Guess MOs from SCF MO coefficient file

 -----------------------------------------------------------------------
  General SCF calculation program by
  Eric Jon Sundstrom, Paul Horn, Yuezhi Mao, Dmitri Zuev, Alec White,
  David Stuck, Shaama M.S., Shane Yost, Joonho Lee, David Small,
  Daniel Levine, Susi Lehtola, Hugh Burton, Evgeny Epifanovsky,
  Bang C. Huynh
 -----------------------------------------------------------------------
 Exchange:     0.1670 Hartree-Fock + 1.0000 wB97X-V + LR-HF
 Correlation:  1.0000 wB97X-V
 Using SG-3 standard quadrature grid
 Nonlocal Correlation:  VV10 with C = 0.0100 and b = 6.00 and scale = 1.00000
 Grid used for NLC:  SG-1 standard quadrature
 
 Citation of the SMD model:
 Marenich, A.V.; Cramer, C.J.; Truhlar, D.G.
 J. Phys. Chem. B 2009, 113, 6378-6396.
 iSolventCode=           0
 Solvent: other                                                           
 
 vradii
            1           2           3           4           5           6
    1   2.2940000   1.8500000   1.8500000   2.2940000   2.2940000   1.8500000
            7           8           9          10          11
    1   2.1476001   1.2000000   1.2000000   1.2000000   1.2000000
 using 32 threads for integral computing
 -------------------------------------------------------
 OpenMP Integral computing Module                
 Release: version 1.0, May 2013, Q-Chem Inc. Pittsburgh 
 -------------------------------------------------------
 using 32 threads for integral computing
 -------------------------------------------------------
 OpenMP Integral computing Module                
 Release: version 1.0, May 2013, Q-Chem Inc. Pittsburgh 
 -------------------------------------------------------
 -------------------------------------------------------
 OpenMP BLAS3 based DFT computing Module                
 Release: version 1.0, May 2013, Q-Chem Inc. Pittsburgh 
 -------------------------------------------------------
 -------------------------------------------------------
 OpenMP BLAS3 based DFT computing Module                
 Release: version 1.0, May 2013, Q-Chem Inc. Pittsburgh 
 -------------------------------------------------------
 -------------------------------------------------------
 OpenMP BLAS3 based DFT computing Module                
 Release: version 1.0, May 2013, Q-Chem Inc. Pittsburgh 
 -------------------------------------------------------
 A unrestricted SCF calculation will be
 performed using Roothaan-Hall, DIIS
 SCF converges when DIIS error is below 1.0e-08
 ---------------------------------------
  Cycle       Energy         DIIS error
 ---------------------------------------
    1    -349.8183358038      1.71e-04  Roothaan Step
 ---------------------------------------
  Cycle       Energy         DIIS error
 ---------------------------------------
    1    -349.9258086874      2.05e-04  
    2    -349.9280685174      1.77e-04  
    3    -349.9292266355      4.52e-05  
    4    -349.9293250012      1.64e-05  
    5    -349.9293484161      7.98e-06  
    6    -349.9293549788      2.40e-06  
    7    -349.9293567087      1.79e-06  
    8    -349.9293572647      9.85e-07  
    9    -349.9293576145      6.02e-07  
   10    -349.9293577715      4.02e-07  
   11    -349.9293578501      2.22e-07  
   12    -349.9293578778      1.11e-07  
   13    -349.9293578832      4.68e-08  
   14    -349.9293578841      1.51e-08  
   15    -349.9293578842      7.88e-09  Convergence criterion met
 ---------------------------------------
 SCF time:   CPU 1815.37s  wall 69.00s 
<S^2> =          0.765283188
(3)  G-ENP(liq) elect-nuc-pol free energy of system     -349.929357884 a.u.
(4)  G-CDS(liq) cavity-dispersion-solvent structure 
     free energy                                               -1.7496 kcal/mol
(6)  G-S(liq) free energy of system                     -349.932145989 a.u.
 SCF   energy in the final basis set =     -349.9293578842
 Total energy in the final basis set =     -349.9321459887
 
 --------------------------------------------------------------
 
                    Orbital Energies (a.u.)
 --------------------------------------------------------------
 
 Alpha MOs
 -- Occupied --
-19.2367 -19.2117 -19.1656 -10.3833 -10.3159 -10.2941  -2.0986  -1.2290
 -1.1139  -1.0988  -0.8869  -0.7509  -0.6700  -0.6146  -0.6018  -0.5743
 -0.5459  -0.5075  -0.4951  -0.4716  -0.4304  -0.4116  -0.3923  -0.3734
 -0.1978
 -- Virtual --
  0.0296   0.0459   0.0478   0.0550   0.0884   0.0987   0.1022   0.1132
  0.1186   0.1254   0.1336   0.1412   0.1485   0.1542   0.1663   0.1718
  0.1750   0.1776   0.1861   0.1993   0.2075   0.2251   0.2323   0.2456
  0.2666   0.2712   0.2754   0.2849   0.3006   0.3097   0.3124   0.3235
  0.3369   0.3427   0.3539   0.3597   0.3644   0.3670   0.3723   0.3840
  0.3878   0.3952   0.3990   0.4053   0.4176   0.4217   0.4258   0.4317
  0.4393   0.4564   0.4604   0.4690   0.4761   0.4884   0.4926   0.4988
  0.5068   0.5112   0.5204   0.5245   0.5269   0.5449   0.5556   0.5719
  0.5747   0.5797   0.5924   0.6026   0.6257   0.6412   0.6489   0.6531
  0.6633   0.6731   0.6949   0.7112   0.7278   0.7414   0.7501   0.7571
  0.7607   0.7720   0.7840   0.7934   0.7984   0.8072   0.8080   0.8258
  0.8454   0.8509   0.8655   0.8845   0.8927   0.9196   0.9358   0.9520
  0.9602   0.9684   0.9708   1.0097   1.0240   1.0447   1.0587   1.0776
  1.0965   1.1115   1.1364   1.1547   1.1714   1.1905   1.2166   1.2281
  1.2462   1.2579   1.2896   1.2915   1.3175   1.3429   1.3626   1.3714
  1.3774   1.3964   1.4280   1.4363   1.4566   1.4844   1.5025   1.5221
  1.5307   1.5482   1.6110   1.6540   1.6825   1.7009   1.7343   1.7478
  1.7529   1.7774   1.8644   1.8765   1.8975   1.9211   1.9347   1.9657
  2.0167   2.0347   2.0528   2.0848   2.1124   2.2134   2.2249   2.2549
  2.2828   2.2972   2.3198   2.3540   2.3989   2.4147   2.4367   2.4555
  2.5554   2.5800   2.6549   2.6707   2.7003   2.7716   2.7985   2.8445
  2.8983   2.9122   2.9401   2.9644   2.9995   3.0233   3.0525   3.0600
  3.1018   3.1339   3.1700   3.1904   3.2014   3.2138   3.2657   3.2835
  3.3184   3.3474   3.3507   3.3675   3.3835   3.4102   3.4311   3.4625
  3.4726   3.4904   3.5208   3.5471   3.5581   3.5790   3.5876   3.6083
  3.6591   3.6728   3.7161   3.7580   3.7761   3.7823   3.7977   3.8392
  3.8735   3.9227   3.9463   3.9551   3.9978   4.0177   4.0727   4.0934
  4.1015   4.1582   4.2580   4.2934   4.3072   4.3601   4.3633   4.3943
  4.4221   4.4325   4.5337   4.5839   4.6820   4.7312   4.7603   4.7676
  4.8324   4.8618   4.9377   4.9534   5.0202   5.0594   5.0726   5.1047
  5.1868   5.3011   5.3206   5.3244   5.3602   5.3858   5.4317   5.4638
  5.5043   5.5290   5.5681   5.6125   5.6508   5.6690   5.6818   5.6996
  5.7450   5.7621   5.8191   5.8553   5.8789   5.9412   5.9827   6.1004
  6.1122   6.1266   6.2409   6.2712   6.3138   6.3300   6.3861   6.5188
  6.5451   6.6626   6.7290   6.8111   6.8640   6.9408   7.0033   7.0245
  7.0719   7.1344   7.1613   7.2959   7.3479   7.4012   7.4716   7.5577
  7.5982  14.9705  23.3277  23.5566  23.6348  44.2397  44.4045  44.4533
 
 Beta MOs
 -- Occupied --
-19.2359 -19.2111 -19.1621 -10.3776 -10.3154 -10.2885  -2.0984  -1.2228
 -1.1111  -1.0905  -0.8758  -0.7428  -0.6594  -0.6087  -0.5908  -0.5673
 -0.5362  -0.4945  -0.4913  -0.4666  -0.4246  -0.4084  -0.3785  -0.3687
 -- Virtual --
  0.0297   0.0463   0.0486   0.0518   0.0666   0.0914   0.1038   0.1151
  0.1215   0.1295   0.1315   0.1427   0.1450   0.1532   0.1573   0.1714
  0.1773   0.1791   0.1805   0.1949   0.2016   0.2130   0.2284   0.2355
  0.2497   0.2691   0.2738   0.2793   0.2879   0.3028   0.3117   0.3157
  0.3258   0.3399   0.3449   0.3565   0.3612   0.3677   0.3690   0.3740
  0.3871   0.3899   0.3966   0.4009   0.4069   0.4192   0.4242   0.4293
  0.4336   0.4410   0.4589   0.4624   0.4723   0.4779   0.4889   0.4939
  0.5017   0.5088   0.5137   0.5218   0.5262   0.5292   0.5476   0.5566
  0.5741   0.5771   0.5814   0.5947   0.6046   0.6271   0.6425   0.6507
  0.6553   0.6647   0.6742   0.6969   0.7129   0.7314   0.7432   0.7525
  0.7580   0.7625   0.7735   0.7869   0.7944   0.8001   0.8095   0.8102
  0.8275   0.8467   0.8522   0.8686   0.8865   0.8941   0.9207   0.9375
  0.9539   0.9617   0.9696   0.9727   1.0103   1.0250   1.0469   1.0602
  1.0810   1.0981   1.1145   1.1381   1.1580   1.1733   1.1965   1.2191
  1.2311   1.2476   1.2607   1.2930   1.2942   1.3215   1.3454   1.3639
  1.3720   1.3816   1.3987   1.4303   1.4395   1.4608   1.4884   1.5074
  1.5253   1.5344   1.5515   1.6151   1.6571   1.6842   1.7037   1.7373
  1.7490   1.7566   1.7797   1.8705   1.8894   1.9033   1.9301   1.9396
  1.9706   2.0218   2.0391   2.0582   2.0892   2.1154   2.2195   2.2275
  2.2598   2.2887   2.3025   2.3233   2.3593   2.4027   2.4201   2.4430
  2.4613   2.5609   2.5848   2.6581   2.6755   2.7041   2.7775   2.8022
  2.8490   2.9015   2.9156   2.9430   2.9703   3.0051   3.0260   3.0571
  3.0641   3.1113   3.1402   3.1761   3.2001   3.2088   3.2168   3.2712
  3.2920   3.3273   3.3543   3.3638   3.3786   3.3914   3.4215   3.4401
  3.4739   3.4786   3.4975   3.5307   3.5525   3.5629   3.5856   3.5928
  3.6162   3.6669   3.6790   3.7205   3.7632   3.7845   3.7898   3.8036
  3.8418   3.8793   3.9264   3.9492   3.9590   4.0006   4.0219   4.0761
  4.0965   4.1061   4.1621   4.2617   4.2966   4.3080   4.3608   4.3637
  4.3969   4.4237   4.4342   4.5387   4.5866   4.6842   4.7358   4.7641
  4.7696   4.8351   4.8657   4.9397   4.9578   5.0228   5.0635   5.0752
  5.1102   5.1897   5.3071   5.3243   5.3302   5.3623   5.3895   5.4333
  5.4673   5.5067   5.5316   5.5710   5.6150   5.6541   5.6728   5.6838
  5.7025   5.7476   5.7640   5.8209   5.8586   5.8823   5.9442   5.9850
  6.1018   6.1125   6.1286   6.2480   6.2727   6.3153   6.3331   6.3896
  6.5234   6.5506   6.6736   6.7376   6.8169   6.8641   6.9438   7.0049
  7.0344   7.0725   7.1365   7.1619   7.2987   7.3531   7.4037   7.4725
  7.5586   7.5991  14.9707  23.3315  23.5628  23.6391  44.2429  44.4059
 44.4543
 --------------------------------------------------------------
 
          Ground-State Mulliken Net Atomic Charges

     Atom                 Charge (a.u.)    Spin (a.u.)
  --------------------------------------------------------
      1 O                    -0.264711      -0.187128
      2 C                     0.318515       0.683252
      3 C                    -0.187720       0.429992
      4 O                    -0.766815       0.080740
      5 O                    -0.448330      -0.078821
      6 C                     0.102528       0.046402
      7 Li                    0.867483       0.013670
      8 H                     0.114264       0.007980
      9 H                     0.119033      -0.001233
     10 H                     0.080883       0.000242
     11 H                     0.064869       0.004905
  --------------------------------------------------------
  Sum of atomic charges =     0.000000
  Sum of spin   charges =     1.000000

  Building new vdw surfaces
         Merz-Kollman RESP Net Atomic Charges

     Atom                 Charge (a.u.)
  ----------------------------------------
      1 O                    -0.312429
      2 C                     0.310537
      3 C                    -0.395238
      4 O                    -0.707192
      5 O                    -0.443770
      6 C                     0.102934
      7 Li                    0.855523
      8 H                     0.195785
      9 H                     0.195785
     10 H                     0.099032
     11 H                     0.099032
  ----------------------------------------
  Sum of atomic charges =     0.000000

  Related Dipole Moment =     8.1718 (X -0.0137 Y  7.2829 Z -3.7065)

 -----------------------------------------------------------------
                    Cartesian Multipole Moments
 -----------------------------------------------------------------
    Charge (ESU x 10^10)
                 0.0000
    Dipole Moment (Debye)
         X      -0.1087      Y       7.3480      Z      -3.7955
       Tot       8.2711
    Quadrupole Moments (Debye-Ang)
        XX     -30.4941     XY      -9.9908     YY     -38.1039
        XZ       4.9203     YZ      -3.6553     ZZ     -35.6685
    Octopole Moments (Debye-Ang^2)
       XXX     -10.8285    XXY      26.5977    XYY      -5.0051
       YYY      25.2625    XXZ     -10.6232    XYZ      10.7084
       YYZ     -10.7713    XZZ      -4.6613    YZZ      10.1257
       ZZZ     -16.4173
    Hexadecapole Moments (Debye-Ang^3)
      XXXX    -345.2267   XXXY     -75.3587   XXYY     -81.4089
      XYYY     -31.5408   YYYY    -217.2606   XXXZ      20.4593
      XXYZ     -16.2974   XYYZ       4.6161   YYYZ      -1.0764
      XXZZ     -65.6518   XYZZ     -14.3158   YYZZ     -47.0491
      XZZZ      -1.5849   YZZZ       2.0874   ZZZZ     -88.0553
 -----------------------------------------------------------------
 Calculating analytic gradient of the SCF energy
 Gradient of CDS energy
            1           2           3           4           5           6
    1   0.0010335  -0.0007801   0.0009407  -0.0004515   0.0002282   0.0000890
    2   0.0004357  -0.0011342  -0.0010461   0.0009349  -0.0001444   0.0013399
    3  -0.0003769   0.0013801  -0.0003576  -0.0005527  -0.0008204   0.0004008
            7           8           9          10          11
    1  -0.0001672  -0.0001556  -0.0003186  -0.0002543  -0.0001641
    2  -0.0000457   0.0000644   0.0000388  -0.0002297  -0.0002136
    3  -0.0000178   0.0002486   0.0001168   0.0000488  -0.0000697
 Gradient of SCF Energy
            1           2           3           4           5           6
    1  -0.0030008   0.0008957  -0.0007015   0.0016898   0.0009275  -0.0048163
    2   0.0004546   0.0009916   0.0005018  -0.0061559  -0.0045599  -0.0090212
    3   0.0013310  -0.0037645   0.0025793   0.0057444   0.0027880   0.0028424
            7           8           9          10          11
    1  -0.0004914   0.0000219   0.0018709   0.0020010   0.0016032
    2   0.0083133  -0.0000856   0.0003508   0.0068491   0.0023613
    3  -0.0050104  -0.0032462   0.0002115  -0.0076518   0.0041764
 Max gradient component =       9.021E-03
 RMS gradient           =       3.869E-03
 Computing fast CPCM-SWIG gradient
 Updating gradient with PCM contributions...
 -- total gradient after adding PCM contribution --
---------------------------------------------------
  Atom         X              Y              Z     
---------------------------------------------------
   1       0.000031       0.000242      -0.000481
   2       0.000191      -0.000049       0.000558
   3      -0.000248      -0.000261       0.000213
   4      -0.000020      -0.000027      -0.000160
   5       0.000275      -0.000058      -0.000034
   6      -0.000238       0.000187      -0.000020
   7      -0.000015      -0.000032      -0.000090
   8      -0.000044      -0.000003       0.000005
   9       0.000013       0.000015      -0.000000
  10       0.000076      -0.000021      -0.000001
  11      -0.000021       0.000008       0.000010
---------------------------------------------------
 Number of fixed atoms: 0
 Gradient time:  CPU 340.91 s  wall 15.50 s
 ----------------------------------------------------------------
             Standard Nuclear Orientation (Angstroms)
    I     Atom           X                Y                Z
 ----------------------------------------------------------------
    1      O       0.2915310231    -1.2164781732     0.6306762183
    2      C      -0.7303284103    -0.4641276607     0.3877348441
    3      C       1.5864709627    -0.3841808833    -0.2065268490
    4      O      -1.7394665105    -0.7261999243    -0.3574613769
    5      O      -0.3555800445     0.8939615958     0.3708939799
    6      C       1.1123580591     0.9900869668     0.1072872325
    7      Li     -1.8903415573     1.0345700879    -0.8440078107
    8      H       1.5172606642    -0.6967586482    -1.2451908270
    9      H       2.4672232318    -0.7409572507     0.3135270773
   10      H       1.2216299154     1.6908447493    -0.7212636277
   11      H       1.5697926664     1.3969591406     1.0098011392
 ----------------------------------------------------------------
 Nuclear Repulsion Energy =         268.15195480 hartrees
 There are       25 alpha and       24 beta electrons
 Discretize the solute cavity surface with Lebedev spheres
	Using 110 Lebedev grid points for each H atom
	Using 194 Lebedev grid points for other atoms
	Atomic van der Waals radii will be scaled by 1.20
 Remove points where switching function is < 1.0e-08
 Keep 788 surface tesserae and discard 1010 interior tesserae
 Molecular Surface Area = 148.376 Angst**2

                       Distance Matrix (Angstroms)
             O (  1)   C (  2)   C (  3)   O (  4)   O (  5)   C (  6)
   C (  2)  1.291994
   C (  3)  1.752283  2.393136
   O (  4)  2.311220  1.281546  3.346882
   O (  5)  2.222655  1.408945  2.395543  2.251792
   C (  6)  2.411768  2.364082  1.487237  3.360734  1.494514
   Li(  7)  3.464459  2.260291  3.808866  1.832976  1.962460  3.150103
   H (  8)  2.300304  2.787870  1.086884  3.375678  2.941029  2.199680
   H (  9)  2.249520  3.210370  1.083268  4.259892  3.262586  2.207874
   H ( 10)  3.338465  3.111901  2.168823  3.839603  2.077359  1.090641
   H ( 11)  2.933896  3.023436  2.156894  4.162740  2.090040  1.090561
             Li(  7)   H (  8)   H (  9)   H ( 10)
   H (  8)  3.843202
   H (  9)  4.845695  1.825920
   H ( 10)  3.182786  2.462224  2.921636
   H ( 11)  3.942139  3.077564  2.420922  1.790020
 
 Requested basis set is def2-TZVPPD
 There are 119 shells and 321 basis functions
 A cutoff of  1.0D-14 yielded   6917 shell pairs
 There are     51147 function pairs (     65206 Cartesian)
 Smallest overlap matrix eigenvalue = 7.44E-06
 Guess MOs from SCF MO coefficient file

 -----------------------------------------------------------------------
  General SCF calculation program by
  Eric Jon Sundstrom, Paul Horn, Yuezhi Mao, Dmitri Zuev, Alec White,
  David Stuck, Shaama M.S., Shane Yost, Joonho Lee, David Small,
  Daniel Levine, Susi Lehtola, Hugh Burton, Evgeny Epifanovsky,
  Bang C. Huynh
 -----------------------------------------------------------------------
 Exchange:     0.1670 Hartree-Fock + 1.0000 wB97X-V + LR-HF
 Correlation:  1.0000 wB97X-V
 Using SG-3 standard quadrature grid
 Nonlocal Correlation:  VV10 with C = 0.0100 and b = 6.00 and scale = 1.00000
 Grid used for NLC:  SG-1 standard quadrature
 
 Citation of the SMD model:
 Marenich, A.V.; Cramer, C.J.; Truhlar, D.G.
 J. Phys. Chem. B 2009, 113, 6378-6396.
 iSolventCode=           0
 Solvent: other                                                           
 
 vradii
            1           2           3           4           5           6
    1   2.2940000   1.8500000   1.8500000   2.2940000   2.2940000   1.8500000
            7           8           9          10          11
    1   2.1476001   1.2000000   1.2000000   1.2000000   1.2000000
 using 32 threads for integral computing
 -------------------------------------------------------
 OpenMP Integral computing Module                
 Release: version 1.0, May 2013, Q-Chem Inc. Pittsburgh 
 -------------------------------------------------------
 using 32 threads for integral computing
 -------------------------------------------------------
 OpenMP Integral computing Module                
 Release: version 1.0, May 2013, Q-Chem Inc. Pittsburgh 
 -------------------------------------------------------
 -------------------------------------------------------
 OpenMP BLAS3 based DFT computing Module                
 Release: version 1.0, May 2013, Q-Chem Inc. Pittsburgh 
 -------------------------------------------------------
 -------------------------------------------------------
 OpenMP BLAS3 based DFT computing Module                
 Release: version 1.0, May 2013, Q-Chem Inc. Pittsburgh 
 -------------------------------------------------------
 -------------------------------------------------------
 OpenMP BLAS3 based DFT computing Module                
 Release: version 1.0, May 2013, Q-Chem Inc. Pittsburgh 
 -------------------------------------------------------
 A unrestricted SCF calculation will be
 performed using Roothaan-Hall, DIIS
 SCF converges when DIIS error is below 1.0e-08
 ---------------------------------------
  Cycle       Energy         DIIS error
 ---------------------------------------
    1    -349.8181573659      1.70e-04  Roothaan Step
 ---------------------------------------
  Cycle       Energy         DIIS error
 ---------------------------------------
    1    -349.9258140909      2.05e-04  
    2    -349.9280582212      1.77e-04  
    3    -349.9292224904      4.52e-05  
    4    -349.9293223546      1.63e-05  
    5    -349.9293474065      8.36e-06  
    6    -349.9293551528      2.66e-06  
    7    -349.9293578445      2.24e-06  
    8    -349.9293589263      1.39e-06  
    9    -349.9293597890      8.43e-07  
   10    -349.9293601694      5.26e-07  
   11    -349.9293603129      2.44e-07  
   12    -349.9293603434      1.17e-07  
   13    -349.9293603471      4.40e-08  
   14    -349.9293603477      1.50e-08  
   15    -349.9293603478      7.71e-09  Convergence criterion met
 ---------------------------------------
 SCF time:   CPU 1811.01s  wall 69.00s 
<S^2> =          0.765230651
(3)  G-ENP(liq) elect-nuc-pol free energy of system     -349.929360348 a.u.
(4)  G-CDS(liq) cavity-dispersion-solvent structure 
     free energy                                               -1.7478 kcal/mol
(6)  G-S(liq) free energy of system                     -349.932145675 a.u.
 SCF   energy in the final basis set =     -349.9293603478
 Total energy in the final basis set =     -349.9321456747
 
 --------------------------------------------------------------
 
                    Orbital Energies (a.u.)
 --------------------------------------------------------------
 
 Alpha MOs
 -- Occupied --
-19.2366 -19.2118 -19.1655 -10.3830 -10.3159 -10.2944  -2.0986  -1.2290
 -1.1137  -1.0988  -0.8869  -0.7509  -0.6701  -0.6146  -0.6018  -0.5743
 -0.5458  -0.5075  -0.4951  -0.4716  -0.4304  -0.4116  -0.3922  -0.3734
 -0.1977
 -- Virtual --
  0.0296   0.0459   0.0478   0.0550   0.0884   0.0987   0.1022   0.1132
  0.1186   0.1254   0.1336   0.1412   0.1485   0.1542   0.1663   0.1719
  0.1750   0.1776   0.1861   0.1993   0.2076   0.2251   0.2323   0.2456
  0.2666   0.2712   0.2754   0.2849   0.3006   0.3097   0.3124   0.3236
  0.3369   0.3427   0.3540   0.3597   0.3644   0.3670   0.3723   0.3840
  0.3879   0.3952   0.3991   0.4053   0.4176   0.4217   0.4258   0.4317
  0.4393   0.4564   0.4604   0.4689   0.4761   0.4884   0.4926   0.4988
  0.5068   0.5112   0.5204   0.5245   0.5269   0.5449   0.5556   0.5720
  0.5747   0.5797   0.5924   0.6026   0.6257   0.6412   0.6489   0.6532
  0.6633   0.6732   0.6949   0.7112   0.7278   0.7414   0.7501   0.7571
  0.7607   0.7719   0.7840   0.7933   0.7984   0.8072   0.8081   0.8259
  0.8454   0.8509   0.8655   0.8845   0.8927   0.9197   0.9358   0.9520
  0.9602   0.9684   0.9708   1.0097   1.0240   1.0448   1.0588   1.0777
  1.0966   1.1115   1.1364   1.1548   1.1713   1.1906   1.2167   1.2281
  1.2462   1.2580   1.2895   1.2916   1.3176   1.3429   1.3626   1.3715
  1.3775   1.3964   1.4279   1.4363   1.4567   1.4844   1.5025   1.5221
  1.5307   1.5483   1.6111   1.6540   1.6825   1.7009   1.7343   1.7477
  1.7530   1.7774   1.8646   1.8765   1.8976   1.9215   1.9347   1.9656
  2.0169   2.0348   2.0528   2.0848   2.1126   2.2136   2.2250   2.2549
  2.2830   2.2976   2.3199   2.3539   2.3991   2.4149   2.4367   2.4557
  2.5554   2.5800   2.6548   2.6709   2.7004   2.7717   2.7986   2.8446
  2.8983   2.9122   2.9402   2.9644   2.9995   3.0232   3.0524   3.0600
  3.1017   3.1340   3.1701   3.1905   3.2015   3.2138   3.2656   3.2836
  3.3185   3.3474   3.3506   3.3675   3.3836   3.4103   3.4312   3.4625
  3.4726   3.4905   3.5210   3.5472   3.5582   3.5790   3.5877   3.6082
  3.6593   3.6728   3.7162   3.7579   3.7761   3.7824   3.7978   3.8393
  3.8737   3.9228   3.9464   3.9553   3.9980   4.0177   4.0726   4.0935
  4.1014   4.1584   4.2581   4.2935   4.3072   4.3601   4.3635   4.3942
  4.4221   4.4327   4.5340   4.5848   4.6822   4.7312   4.7602   4.7675
  4.8324   4.8615   4.9377   4.9533   5.0205   5.0596   5.0727   5.1046
  5.1868   5.3013   5.3207   5.3245   5.3602   5.3859   5.4316   5.4639
  5.5047   5.5290   5.5682   5.6126   5.6511   5.6689   5.6822   5.6999
  5.7453   5.7623   5.8193   5.8556   5.8788   5.9414   5.9828   6.1007
  6.1123   6.1267   6.2412   6.2713   6.3139   6.3301   6.3858   6.5193
  6.5455   6.6625   6.7290   6.8113   6.8644   6.9408   7.0036   7.0247
  7.0720   7.1343   7.1620   7.2956   7.3481   7.4018   7.4719   7.5579
  7.5986  14.9705  23.3275  23.5562  23.6347  44.2399  44.4052  44.4534
 
 Beta MOs
 -- Occupied --
-19.2358 -19.2112 -19.1620 -10.3773 -10.3154 -10.2888  -2.0983  -1.2228
 -1.1110  -1.0905  -0.8759  -0.7428  -0.6594  -0.6088  -0.5907  -0.5673
 -0.5362  -0.4945  -0.4913  -0.4666  -0.4247  -0.4083  -0.3784  -0.3687
 -- Virtual --
  0.0298   0.0463   0.0486   0.0518   0.0666   0.0914   0.1038   0.1151
  0.1215   0.1295   0.1315   0.1428   0.1451   0.1532   0.1573   0.1714
  0.1773   0.1791   0.1805   0.1950   0.2016   0.2131   0.2284   0.2355
  0.2497   0.2691   0.2738   0.2793   0.2879   0.3028   0.3117   0.3157
  0.3258   0.3399   0.3449   0.3565   0.3612   0.3677   0.3690   0.3740
  0.3871   0.3899   0.3966   0.4010   0.4070   0.4192   0.4242   0.4293
  0.4336   0.4411   0.4589   0.4624   0.4723   0.4780   0.4889   0.4939
  0.5016   0.5088   0.5137   0.5219   0.5262   0.5292   0.5476   0.5566
  0.5741   0.5771   0.5814   0.5948   0.6046   0.6271   0.6425   0.6506
  0.6553   0.6647   0.6742   0.6969   0.7129   0.7314   0.7432   0.7524
  0.7580   0.7625   0.7735   0.7869   0.7944   0.8001   0.8095   0.8102
  0.8275   0.8468   0.8522   0.8687   0.8866   0.8941   0.9207   0.9376
  0.9540   0.9617   0.9696   0.9728   1.0103   1.0251   1.0470   1.0603
  1.0811   1.0982   1.1145   1.1380   1.1581   1.1732   1.1965   1.2192
  1.2310   1.2476   1.2608   1.2930   1.2942   1.3216   1.3453   1.3640
  1.3720   1.3816   1.3987   1.4303   1.4396   1.4609   1.4883   1.5075
  1.5253   1.5344   1.5516   1.6153   1.6571   1.6842   1.7036   1.7373
  1.7490   1.7566   1.7798   1.8707   1.8894   1.9033   1.9305   1.9396
  1.9705   2.0220   2.0392   2.0582   2.0892   2.1156   2.2198   2.2276
  2.2598   2.2889   2.3028   2.3233   2.3592   2.4029   2.4203   2.4430
  2.4615   2.5609   2.5848   2.6580   2.6757   2.7042   2.7776   2.8023
  2.8490   2.9014   2.9156   2.9431   2.9702   3.0051   3.0259   3.0570
  3.0641   3.1113   3.1402   3.1763   3.2003   3.2089   3.2169   3.2711
  3.2921   3.3274   3.3542   3.3638   3.3785   3.3915   3.4216   3.4402
  3.4739   3.4786   3.4976   3.5309   3.5526   3.5630   3.5856   3.5930
  3.6162   3.6670   3.6789   3.7206   3.7631   3.7846   3.7900   3.8037
  3.8420   3.8795   3.9266   3.9493   3.9592   4.0007   4.0219   4.0760
  4.0966   4.1061   4.1623   4.2619   4.2966   4.3081   4.3608   4.3639
  4.3968   4.4237   4.4344   4.5390   4.5875   4.6843   4.7358   4.7641
  4.7695   4.8351   4.8654   4.9397   4.9577   5.0230   5.0637   5.0752
  5.1100   5.1896   5.3073   5.3243   5.3303   5.3623   5.3896   5.4332
  5.4674   5.5071   5.5316   5.5711   5.6151   5.6544   5.6727   5.6842
  5.7028   5.7479   5.7642   5.8210   5.8589   5.8823   5.9444   5.9851
  6.1021   6.1126   6.1288   6.2484   6.2728   6.3154   6.3333   6.3893
  6.5238   6.5510   6.6736   6.7377   6.8171   6.8646   6.9438   7.0051
  7.0346   7.0727   7.1364   7.1625   7.2984   7.3533   7.4043   7.4728
  7.5588   7.5994  14.9708  23.3313  23.5625  23.6390  44.2431  44.4066
 44.4544
 --------------------------------------------------------------
 
          Ground-State Mulliken Net Atomic Charges

     Atom                 Charge (a.u.)    Spin (a.u.)
  --------------------------------------------------------
      1 O                    -0.264109      -0.187581
      2 C                     0.316996       0.686307
      3 C                    -0.185905       0.427181
      4 O                    -0.766865       0.080930
      5 O                    -0.448180      -0.079196
      6 C                     0.102074       0.046747
      7 Li                    0.867407       0.013745
      8 H                     0.114038       0.008005
      9 H                     0.118843      -0.001209
     10 H                     0.080843       0.000176
     11 H                     0.064858       0.004895
  --------------------------------------------------------
  Sum of atomic charges =    -0.000000
  Sum of spin   charges =     1.000000

  Building new vdw surfaces
         Merz-Kollman RESP Net Atomic Charges

     Atom                 Charge (a.u.)
  ----------------------------------------
      1 O                    -0.311903
      2 C                     0.308346
      3 C                    -0.395336
      4 O                    -0.706872
      5 O                    -0.443715
      6 C                     0.102137
      7 Li                    0.855546
      8 H                     0.196458
      9 H                     0.196458
     10 H                     0.099441
     11 H                     0.099441
  ----------------------------------------
  Sum of atomic charges =     0.000000

  Related Dipole Moment =     8.1721 (X  0.0036 Y  7.2803 Z -3.7122)

 -----------------------------------------------------------------
                    Cartesian Multipole Moments
 -----------------------------------------------------------------
    Charge (ESU x 10^10)
                -0.0000
    Dipole Moment (Debye)
         X      -0.0904      Y       7.3454      Z      -3.8009
       Tot       8.2711
    Quadrupole Moments (Debye-Ang)
        XX     -30.4803     XY      -9.9968     YY     -38.1001
        XZ       4.9185     YZ      -3.6555     ZZ     -35.6765
    Octopole Moments (Debye-Ang^2)
       XXX     -10.7443    XXY      26.5949    XYY      -4.9973
       YYY      25.2337    XXZ     -10.6395    XYZ      10.7087
       YYZ     -10.7687    XZZ      -4.6376    YZZ      10.1224
       ZZZ     -16.4318
    Hexadecapole Moments (Debye-Ang^3)
      XXXX    -345.0856   XXXY     -75.3747   XXYY     -81.3972
      XYYY     -31.5361   YYYY    -217.1654   XXXZ      20.4229
      XXYZ     -16.3003   XYYZ       4.6092   YYYZ      -1.0941
      XXZZ     -65.6611   XYZZ     -14.3217   YYZZ     -47.0396
      XZZZ      -1.5976   YZZZ       2.0800   ZZZZ     -88.0998
 -----------------------------------------------------------------
 Calculating analytic gradient of the SCF energy
 Gradient of CDS energy
            1           2           3           4           5           6
    1   0.0010343  -0.0007806   0.0009405  -0.0004515   0.0002282   0.0000890
    2   0.0004362  -0.0011345  -0.0010460   0.0009349  -0.0001444   0.0013397
    3  -0.0003769   0.0013801  -0.0003582  -0.0005527  -0.0008204   0.0004011
            7           8           9          10          11
    1  -0.0001672  -0.0001554  -0.0003188  -0.0002543  -0.0001641
    2  -0.0000457   0.0000646   0.0000386  -0.0002297  -0.0002136
    3  -0.0000178   0.0002486   0.0001172   0.0000488  -0.0000697
 Gradient of SCF Energy
            1           2           3           4           5           6
    1  -0.0034461   0.0010740  -0.0003095   0.0016540   0.0007617  -0.0047104
    2   0.0006901   0.0007361   0.0007983  -0.0060326  -0.0047446  -0.0092124
    3   0.0016389  -0.0041924   0.0023384   0.0059675   0.0029193   0.0028619
            7           8           9          10          11
    1  -0.0004910   0.0000140   0.0018807   0.0019695   0.0016031
    2   0.0083292  -0.0001042   0.0003134   0.0068583   0.0023684
    3  -0.0050282  -0.0032746   0.0002476  -0.0076660   0.0041877
 Max gradient component =       9.212E-03
 RMS gradient           =       3.919E-03
 Computing fast CPCM-SWIG gradient
 Updating gradient with PCM contributions...
 -- total gradient after adding PCM contribution --
---------------------------------------------------
  Atom         X              Y              Z     
---------------------------------------------------
   1      -0.000433       0.000493      -0.000164
   2       0.000380      -0.000310       0.000113
   3       0.000192       0.000008      -0.000047
   4      -0.000045       0.000101       0.000061
   5       0.000117      -0.000254       0.000098
   6      -0.000132       0.000010      -0.000002
   7      -0.000023      -0.000018      -0.000100
   8      -0.000054      -0.000010       0.000011
   9      -0.000018      -0.000012       0.000025
  10       0.000042      -0.000021      -0.000005
  11      -0.000027       0.000013       0.000011
---------------------------------------------------
 Number of fixed atoms: 0
 Gradient time:  CPU 334.55 s  wall 15.80 s
 ----------------------------------------------------------------
             Standard Nuclear Orientation (Angstroms)
    I     Atom           X                Y                Z
 ----------------------------------------------------------------
    1      O       0.2915310231    -1.2184781732     0.6306762183
    2      C      -0.7303284103    -0.4641276607     0.3877348441
    3      C       1.5864709627    -0.3841808833    -0.2065268490
    4      O      -1.7394665105    -0.7261999243    -0.3574613769
    5      O      -0.3555800445     0.8939615958     0.3708939799
    6      C       1.1123580591     0.9900869668     0.1072872325
    7      Li     -1.8903415573     1.0345700879    -0.8440078107
    8      H       1.5172606642    -0.6967586482    -1.2451908270
    9      H       2.4672232318    -0.7409572507     0.3135270773
   10      H       1.2216299154     1.6908447493    -0.7212636277
   11      H       1.5697926664     1.3969591406     1.0098011392
 ----------------------------------------------------------------
 Nuclear Repulsion Energy =         268.09905546 hartrees
 There are       25 alpha and       24 beta electrons
 Discretize the solute cavity surface with Lebedev spheres
	Using 110 Lebedev grid points for each H atom
	Using 194 Lebedev grid points for other atoms
	Atomic van der Waals radii will be scaled by 1.20
 Remove points where switching function is < 1.0e-08
 Keep 788 surface tesserae and discard 1010 interior tesserae
 Molecular Surface Area = 148.395 Angst**2

                       Distance Matrix (Angstroms)
             O (  1)   C (  2)   C (  3)   O (  4)   O (  5)   C (  6)
   C (  2)  1.293160
   C (  3)  1.753234  2.393136
   O (  4)  2.311645  1.281546  3.346882
   O (  5)  2.224554  1.408945  2.395543  2.251792
   C (  6)  2.413598  2.364082  1.487237  3.360734  1.494514
[...]
    11    1.638986411444795e-03   1.663750829897356e-02  -1.719835412932239e-02


    11 Order 1, Length 33
    Atom      X          Y          Z
     1   -1.942300875869968e-03  -1.018140900208671e-03   1.332547052778508e-03
     2   -2.815911739892550e-04   7.093559212329705e-03  -4.151652645199004e-03
     3    6.699945860544931e-03   7.203325008322263e-03   9.626598959331059e-03
     4   -1.635216453801972e-03  -2.934597330939545e-03   7.893861962362152e-04
     5   -3.252240312444812e-02  -1.708876579822877e-02  -1.938042094038722e-02
     6   -8.439045072551636e-02  -3.948183975437726e-02  -9.028604169703255e-02
     7    8.555663481101516e-04  -4.796058560876791e-04   7.886299499781327e-04
     8    9.968877687845418e-04   2.997530290765013e-03   1.012740808095781e-04
     9    2.341781625805022e-04  -8.273550128976652e-04   9.852254887490141e-04
    10    3.622252942088959e-03   1.535325494620110e-03   1.638986411444795e-03
    11    1.083630094251367e-01   4.300060908807394e-02   9.855540109437776e-02

Order 1, Length 33
    Atom      X          Y          Z
     1    2.167272821728671e-03   4.929141141187554e-04  -4.481512590844975e-04
     2   -1.257427300594473e-03   4.858163427631276e-04   9.773039058733988e-04
     3   -1.103375498014069e-02  -1.054227523643101e-02  -2.669048908568215e-02
     4   -4.360343345412744e-04  -3.619037595723308e-04  -8.838994377333266e-04
     5   -2.769899400004378e-03   2.442895266735170e-03  -1.521646850441512e-03
     6   -3.891610885977941e-02  -9.102633416642744e-02  -7.935336153798427e-02
     7    1.029123152443606e-04  -1.686519622210549e-04   1.944653091507617e-04
     8    1.026847502041841e-03  -4.617571878788152e-03  -4.391897207117139e-04
     9   -1.874249441685299e-04   1.605292049661806e-03   3.612337916263317e-04
    10    8.302894698324455e-03   9.264929257122422e-03   1.663750829897356e-02
    11    4.300060908807394e-02   9.242493601416422e-02   9.116616292005232e-02

Order 1, Length 33
    Atom      X          Y          Z
     1    7.154588126582373e-04  -2.295954264623963e-04  -2.584819828290783e-04
     2    3.665044147809514e-04  -2.491274337911758e-04   1.270543684668315e-03
     3   -1.624370034925344e-03  -2.186001775828355e-03  -4.031620052457268e-03
     4    2.371703913822689e-05   3.723695651629594e-04  -9.270033310757349e-04
     5    4.994311466238315e-03   4.749962546109603e-03   1.155381442288494e-02
     6   -9.532275745234112e-02  -8.331710693955532e-02  -2.490921467301274e-01
     7    2.382728880730332e-04   2.169866739727715e-05   7.753728665832356e-05
     8   -1.878651307885232e-05  -1.532557065699771e-03   1.365243947626163e-03
     9    7.456909765439844e-04   4.710939279849027e-04   6.000621746118043e-04
    10   -8.673742261825077e-03  -9.266812786061666e-03  -1.719835412932239e-02
    11    9.855540109437776e-02   9.116616292005232e-02   2.566402924352471e-01




 # Finishing finite difference calculation for IDERIV #
 ######################################################
 ######################################################
 Requested basis set is def2-TZVPPD
 There are 119 shells and 321 basis functions
 **********************************************************************
 **                                                                  **
 **                       VIBRATIONAL ANALYSIS                       **
 **                       --------------------                       **
 **                                                                  **
 **        VIBRATIONAL FREQUENCIES (CM**-1) AND NORMAL MODES         **
 **     FORCE CONSTANTS (mDYN/ANGSTROM) AND REDUCED MASSES (AMU)     **
 **                  INFRARED INTENSITIES (KM/MOL)                   **
 **                                                                  **
 **********************************************************************
 

 Mode:                 1                      2                      3
 Frequency:     -1212.55                  98.14                 144.91
 Force Cnst:     10.1912                 0.0168                 0.0645
 Red. Mass:      11.7646                 2.9603                 5.2115
 IR Active:          YES                    YES                    YES
 IR Intens:     3404.825                 34.785                 30.941
 Raman Active:       YES                    YES                    YES
               X      Y      Z        X      Y      Z        X      Y      Z
 O          0.465  0.089 -0.251   -0.019 -0.011  0.025   -0.011 -0.015  0.079
 C         -0.250  0.065  0.337    0.007  0.003 -0.049   -0.014 -0.027  0.088
 C         -0.429 -0.295  0.247    0.044 -0.048  0.142   -0.127  0.011 -0.127
 O         -0.001 -0.019 -0.143    0.070  0.009 -0.137    0.106  0.019 -0.089
 O          0.108  0.089 -0.065   -0.009 -0.015  0.072   -0.059 -0.015  0.320
 C         -0.107  0.038  0.027   -0.010  0.008 -0.191   -0.101  0.022 -0.155
 Li         0.009 -0.030  0.010   -0.178  0.116  0.297    0.419  0.002 -0.239
 H         -0.082 -0.011  0.110    0.231 -0.237  0.188   -0.288 -0.075 -0.089
 H         -0.008  0.115 -0.108   -0.028  0.069  0.345   -0.046  0.058 -0.232
 H          0.283 -0.118 -0.051   -0.182 -0.235 -0.417   -0.390 -0.081 -0.281
 H          0.028 -0.019 -0.008    0.058  0.319 -0.369    0.133  0.172 -0.345
 TransDip   1.820  0.084 -0.416   -0.114  0.028  0.148    0.100 -0.028 -0.145

 Mode:                 4                      5                      6
 Frequency:       189.70                 322.46                 495.27
 Force Cnst:      0.0810                 0.4634                 1.0576
 Red. Mass:       3.8214                 7.5647                 7.3179
 IR Active:          YES                    YES                    YES
 IR Intens:       21.789                 88.323                105.834
 Raman Active:       YES                    YES                    YES
               X      Y      Z        X      Y      Z        X      Y      Z
 O         -0.016  0.076  0.229    0.018  0.012  0.070    0.146 -0.176  0.136
 C          0.009  0.019  0.010   -0.066 -0.136 -0.019    0.079 -0.163  0.127
 C         -0.123 -0.044 -0.168   -0.011  0.071  0.010    0.039  0.040 -0.007
 O          0.166 -0.050 -0.177   -0.077 -0.133  0.018    0.062  0.206  0.038
 O          0.012  0.041 -0.056   -0.059 -0.046 -0.262    0.021 -0.170 -0.117
 C          0.019 -0.052  0.077   -0.127  0.047 -0.022   -0.244 -0.017  0.006
 Li        -0.159  0.025  0.177    0.650  0.365  0.436   -0.276  0.512 -0.322
 H         -0.521  0.008 -0.159    0.000  0.040  0.019   -0.049 -0.016  0.016
 H          0.018 -0.139 -0.475    0.030  0.173  0.010    0.246  0.330 -0.154
 H          0.145  0.116  0.235   -0.001  0.068  0.008   -0.203 -0.032 -0.012
 H          0.037 -0.310  0.186   -0.248  0.040  0.045   -0.204  0.050 -0.033
 TransDip  -0.127 -0.003  0.079    0.245  0.105  0.139   -0.172  0.238 -0.150

 Mode:                 7                      8                      9
 Frequency:       558.52                 625.38                 663.15
 Force Cnst:      1.4493                 0.9553                 1.3940
 Red. Mass:       7.8856                 4.1458                 5.3800
 IR Active:          YES                    YES                    YES
 IR Intens:       33.854                 51.770                 28.290
 Raman Active:       YES                    YES                    YES
               X      Y      Z        X      Y      Z        X      Y      Z
 O          0.174  0.324 -0.000    0.074  0.122  0.029   -0.124 -0.136 -0.139
 C         -0.020  0.058 -0.144   -0.018  0.020  0.053    0.062  0.107  0.145
 C          0.108 -0.141 -0.052    0.178 -0.072 -0.104   -0.008 -0.070 -0.060
 O         -0.090 -0.229  0.054   -0.015  0.213 -0.057    0.289 -0.112  0.107
 O         -0.210 -0.053  0.160   -0.078 -0.020 -0.009   -0.124  0.235 -0.048
 C          0.109 -0.189 -0.003   -0.213 -0.181 -0.004   -0.127 -0.076 -0.010
 Li        -0.089  0.478 -0.193    0.082 -0.268  0.128    0.001  0.148 -0.022
 H          0.297 -0.171 -0.059    0.563 -0.171 -0.101    0.531 -0.053 -0.100
 H         -0.033 -0.214  0.140    0.119  0.206  0.194   -0.279 -0.053  0.408
 H         -0.016 -0.020  0.140   -0.108  0.013  0.175    0.086  0.038  0.117
 H          0.015 -0.359  0.109   -0.210 -0.392  0.091   -0.134 -0.293  0.091
 TransDip  -0.118  0.122 -0.078    0.091 -0.190  0.094   -0.160  0.051  0.031

 Mode:                10                     11                     12
 Frequency:       727.82                 803.66                 849.45
 Force Cnst:      1.8208                 0.8044                 1.7136
 Red. Mass:       5.8340                 2.1138                 4.0308
 IR Active:          YES                    YES                    YES
 IR Intens:       58.491                 15.505                107.245
 Raman Active:       YES                    YES                    YES
               X      Y      Z        X      Y      Z        X      Y      Z
 O          0.089 -0.002 -0.038    0.007 -0.035 -0.012   -0.031  0.075  0.038
 C          0.309  0.130 -0.277    0.029 -0.021 -0.106    0.102  0.008 -0.197
 C         -0.219 -0.088  0.140    0.083 -0.051  0.053   -0.181 -0.004 -0.028
 O          0.108  0.152  0.133   -0.051 -0.050  0.009   -0.020 -0.068  0.044
 O         -0.214 -0.093 -0.050    0.036  0.180  0.039    0.289 -0.027  0.056
 C         -0.024 -0.030  0.027   -0.118 -0.056  0.036   -0.229  0.011  0.005
 Li         0.086 -0.094  0.068   -0.001  0.006 -0.005   -0.013  0.016 -0.023
 H         -0.615 -0.138  0.184   -0.398 -0.265  0.152    0.455 -0.059 -0.057
 H         -0.139 -0.214 -0.098    0.550  0.410 -0.403   -0.415  0.167  0.471
 H         -0.143 -0.104 -0.038    0.019 -0.152 -0.035   -0.045  0.180  0.164
 H         -0.215  0.076  0.066    0.037 -0.014 -0.057   -0.009 -0.252  0.027
 TransDip  -0.184 -0.041  0.156   -0.071 -0.086 -0.059   -0.331  0.011  0.011

 Mode:                13                     14                     15
 Frequency:       881.01                 913.34                1009.80
 Force Cnst:      1.1657                 0.7652                 0.7888
 Red. Mass:       2.5490                 1.5569                 1.3130
 IR Active:          YES                    YES                    YES
 IR Intens:       39.259                 67.182                102.762
 Raman Active:       YES                    YES                    YES
               X      Y      Z        X      Y      Z        X      Y      Z
 O          0.094 -0.116  0.083   -0.057  0.018 -0.052   -0.008 -0.042  0.040
 C          0.028 -0.130 -0.059   -0.024  0.098  0.054    0.007  0.076 -0.028
 C         -0.068 -0.011 -0.028   -0.006  0.045  0.032   -0.084  0.004  0.014
 O         -0.080  0.047 -0.022    0.036 -0.020  0.005   -0.011 -0.008  0.000
 O         -0.090  0.119  0.030    0.016 -0.111 -0.002   -0.026 -0.021  0.007
 C          0.107  0.096 -0.094    0.037  0.001 -0.067    0.061 -0.060 -0.012
 Li        -0.007 -0.019 -0.003    0.004  0.011  0.001    0.007 -0.001  0.005
 H          0.218 -0.355  0.057   -0.232 -0.487  0.217    0.446  0.508 -0.183
 H         -0.170  0.217  0.300    0.210  0.518 -0.002    0.274  0.568 -0.191
 H          0.294  0.438  0.223   -0.025  0.340  0.215    0.129 -0.160 -0.083
 H          0.112 -0.424  0.138    0.004 -0.361  0.113    0.009 -0.024 -0.009
 TransDip   0.092 -0.171 -0.050    0.131  0.222  0.049    0.214  0.231 -0.079

 Mode:                16                     17                     18
 Frequency:      1085.41                1156.93                1199.54
 Force Cnst:      1.8117                 1.1085                 4.2155
 Red. Mass:       2.6101                 1.4056                 4.9725
 IR Active:          YES                    YES                    YES
 IR Intens:       87.541                  5.096                230.153
 Raman Active:       YES                    YES                    YES
               X      Y      Z        X      Y      Z        X      Y      Z
 O          0.022  0.043 -0.032   -0.007  0.001 -0.000    0.149 -0.219  0.081
 C         -0.010 -0.112  0.017   -0.002 -0.000 -0.002    0.049  0.380  0.038
 C         -0.071  0.253  0.025    0.038  0.029  0.079    0.064  0.144 -0.028
 O          0.020  0.025  0.006    0.003 -0.000  0.003   -0.168 -0.090 -0.106
 O          0.003  0.042 -0.013    0.019 -0.008  0.047    0.029  0.027 -0.003
 C          0.035 -0.231 -0.000   -0.055 -0.010 -0.144   -0.034 -0.117 -0.013
 Li        -0.008 -0.005 -0.004   -0.002  0.001 -0.003    0.023  0.010  0.014
 H         -0.315 -0.029  0.149   -0.158  0.362 -0.012   -0.250  0.020  0.043
 H         -0.305  0.168  0.318    0.040 -0.316 -0.163   -0.335 -0.373  0.256
 H          0.241 -0.506 -0.198    0.589  0.100  0.028   -0.510  0.018  0.057
 H          0.270 -0.271 -0.112   -0.473 -0.262  0.174   -0.158 -0.116  0.033
 TransDip  -0.145 -0.262  0.013   -0.031 -0.023 -0.061    0.315  0.369  0.027

 Mode:                19                     20                     21
 Frequency:      1243.74                1365.56                1473.70
 Force Cnst:      1.1312                 1.4418                 1.4407
 Red. Mass:       1.2412                 1.3123                 1.1259
 IR Active:          YES                    YES                    YES
 IR Intens:       63.615                 93.893                 17.159
 Raman Active:       YES                    YES                    YES
               X      Y      Z        X      Y      Z        X      Y      Z
 O          0.006 -0.012  0.004   -0.004 -0.012  0.005   -0.002  0.005 -0.003
 C          0.015  0.049  0.012    0.023  0.060  0.005    0.020  0.003  0.013
 C         -0.002 -0.002 -0.098    0.033  0.003  0.013    0.046 -0.080 -0.024
 O         -0.017 -0.011 -0.012   -0.013 -0.011 -0.007   -0.009 -0.003 -0.007
 O         -0.007 -0.032  0.022   -0.039 -0.049 -0.008   -0.010 -0.006 -0.000
 C         -0.005  0.044  0.061   -0.092  0.083  0.026   -0.015 -0.017 -0.007
 Li         0.001  0.003  0.001    0.006  0.002  0.004    0.000  0.001 -0.000
 H          0.006 -0.403  0.023    0.058  0.009  0.005   -0.478  0.405 -0.125
 H         -0.069  0.176  0.137    0.029 -0.168 -0.086   -0.105  0.330  0.492
 H          0.602 -0.343 -0.198    0.419 -0.132 -0.093    0.176  0.209  0.196
 H         -0.353  0.328  0.104    0.764 -0.320 -0.216    0.133  0.233 -0.183
 TransDip   0.198  0.160 -0.020    0.253  0.178  0.030    0.035  0.105  0.074

 Mode:                22                     23                     24
 Frequency:      1507.16                1526.01                3102.30
 Force Cnst:      1.7487                 7.7339                 5.9958
 Red. Mass:       1.3066                 5.6368                 1.0574
 IR Active:          YES                    YES                    YES
 IR Intens:       73.176                581.231                 44.330
 Raman Active:       YES                    YES                    YES
               X      Y      Z        X      Y      Z        X      Y      Z
 O          0.023 -0.022  0.011   -0.109  0.095 -0.057    0.001  0.000 -0.000
 C         -0.080  0.023 -0.050    0.460 -0.081  0.271    0.000  0.002  0.000
 C         -0.022  0.056  0.009   -0.081  0.021  0.052    0.003 -0.001 -0.001
 O          0.032  0.008  0.025   -0.182 -0.047 -0.145   -0.000 -0.000 -0.000
 O         -0.005 -0.005  0.003   -0.025  0.025 -0.014   -0.002  0.000  0.000
 C         -0.019 -0.098 -0.007    0.000 -0.087 -0.018   -0.028 -0.060 -0.009
 Li         0.002 -0.006  0.003   -0.003  0.027 -0.009    0.000 -0.000  0.000
 H          0.200 -0.190  0.065    0.307 -0.138  0.074    0.006  0.015  0.048
 H          0.019 -0.157 -0.207    0.085 -0.111 -0.321   -0.046  0.016 -0.028
 H          0.292  0.378  0.420    0.136  0.283  0.311    0.057  0.420 -0.517
 H          0.129  0.531 -0.350   -0.001  0.357 -0.211    0.301  0.264  0.618
 TransDip  -0.230  0.053 -0.139    0.678  0.008  0.369   -0.137 -0.160 -0.032

 Mode:                25                     26                     27
 Frequency:      3149.72                3162.01                3250.02
 Force Cnst:      6.2256                 6.5018                 6.9427
 Red. Mass:       1.0651                 1.1037                 1.1156
 IR Active:          YES                    YES                    YES
 IR Intens:        3.661                 23.201                  8.763
 Raman Active:       YES                    YES                    YES
               X      Y      Z        X      Y      Z        X      Y      Z
 O          0.001  0.000 -0.000    0.000 -0.000  0.000   -0.000 -0.000  0.001
 C         -0.001  0.000  0.000   -0.001  0.000  0.000    0.001  0.000 -0.001
 C          0.027 -0.036 -0.044    0.018 -0.015 -0.010   -0.060  0.012 -0.077
 O          0.000 -0.000 -0.000    0.000  0.000 -0.000    0.000 -0.000  0.000
 O          0.000 -0.000 -0.000    0.000  0.000  0.001    0.000 -0.000  0.000
 C          0.007 -0.000  0.035   -0.016  0.020 -0.086   -0.002 -0.000 -0.009
 Li        -0.000 -0.000 -0.000    0.000  0.000 -0.000    0.000  0.000 -0.000
 H          0.066  0.232  0.760    0.021  0.078  0.258    0.033  0.158  0.504
 H         -0.379  0.155 -0.242   -0.221  0.092 -0.140    0.676 -0.281  0.407
 H          0.023  0.145 -0.169   -0.063 -0.452  0.530   -0.004 -0.036  0.042
 H         -0.119 -0.109 -0.239    0.243  0.225  0.492    0.030  0.031  0.064
 TransDip   0.048 -0.028 -0.026   -0.024 -0.008 -0.152   -0.019  0.010 -0.092

 STANDARD THERMODYNAMIC QUANTITIES AT   298.15 K  AND     1.00 ATM

   This Molecule has  1 Imaginary Frequencies
   Zero point vibrational energy:       45.038 kcal/mol

   Atom    1 Element O  Has Mass   15.99491
   Atom    2 Element C  Has Mass   12.00000
   Atom    3 Element C  Has Mass   12.00000
   Atom    4 Element O  Has Mass   15.99491
   Atom    5 Element O  Has Mass   15.99491
   Atom    6 Element C  Has Mass   12.00000
   Atom    7 Element Li Has Mass    7.01600
   Atom    8 Element H  Has Mass    1.00783
   Atom    9 Element H  Has Mass    1.00783
   Atom   10 Element H  Has Mass    1.00783
   Atom   11 Element H  Has Mass    1.00783
   Molecular Mass:    95.032050 amu
   Principal axes and moments of inertia in amu*Bohr^2:
                             1           2           3
    Eigenvalues --      328.90337   568.54117   774.42335
          X               0.98849    -0.05680    -0.14024
          Y               0.07743     0.98620     0.14632
          Z               0.13000    -0.15549     0.97925
   Rotational Symmetry Number is   1
   The Molecule is an Asymmetric Top
   Translational Enthalpy:        0.889 kcal/mol
   Rotational Enthalpy:           0.889 kcal/mol
   Vibrational Enthalpy:         47.258 kcal/mol
   gas constant (RT):             0.592 kcal/mol
   Translational Entropy:        39.566  cal/mol.K
   Rotational Entropy:           26.473  cal/mol.K
   Vibrational Entropy:          12.985  cal/mol.K

   Total Enthalpy:               49.628 kcal/mol
   Total Entropy:                79.024  cal/mol.K
Archival summary:
1\1\n0259.lr6\FREQ\ProcedureUnspecified\BasisUnspecified\33i14(2)\ewcspott\MonMay1817:27:282020MonMay1817:27:282020\0\\#,FREQ,ProcedureUnspecified,BasisUnspecified,\\0,2\O\C,1,1.40895\O,2,1.28155,1,113.554\O,2,1.29258,1,110.718,3,151.568,0\C,1,1.49451,2,108.987,3,-129.728,0\H,5,1.09056,1,106.859,2,-113.921,0\H,5,1.09064,1,105.886,2,128.487,0\C,5,1.48724,1,106.912,2,6.96498,0\H,8,1.08327,5,117.531,1,-131.149,0\H,8,1.08688,5,116.557,1,87.1505,0\Li,3,1.83298,2,91.302,1,-1.0573,0\\\@

 Total job time:  5699.50s(wall), 146115.10s(cpu) 
 Mon May 18 17:27:28 2020

        *************************************************************
        *                                                           *
        *  Thank you very much for using Q-Chem.  Have a nice day.  *
        *                                                           *
        *************************************************************


